 Initial command:
 /usr/local/apps/chemistry/g98a11.3/g98/l1.exe /scratch-eir/LSBATCH/815067.1Aug2002131327/Gau-10157900.inp -scrdir=/scratch-eir/LSBATCH/815067.1Aug2002131327/
 Entering Link 1 = /usr/local/apps/chemistry/g98a11.3/g98/l1.exe PID=   8951397.
  
 Copyright (c) 1988,1990,1992,1993,1995,1998 Gaussian, Inc.
                  All Rights Reserved.
  
 This is part of the Gaussian(R) 98 program.  It is based on
 the Gaussian 94(TM) system (copyright 1995 Gaussian, Inc.),
 the Gaussian 92(TM) system (copyright 1992 Gaussian, Inc.),
 the Gaussian 90(TM) system (copyright 1990 Gaussian, Inc.),
 the Gaussian 88(TM) system (copyright 1988 Gaussian, Inc.),
 the Gaussian 86(TM) system (copyright 1986 Carnegie Mellon
 University), and the Gaussian 82(TM) system (copyright 1983
 Carnegie Mellon University). Gaussian is a federally registered
 trademark of Gaussian, Inc.
  
 This software contains proprietary and confidential information,
 including trade secrets, belonging to Gaussian, Inc.
  
 This software is provided under written license and may be
 used, copied, transmitted, or stored only in accord with that
 written license.
  
 The following legend is applicable only to US Government
 contracts under DFARS:
  
                    RESTRICTED RIGHTS LEGEND
  
 Use, duplication or disclosure by the US Government is subject
 to restrictions as set forth in subparagraph (c)(1)(ii) of the
 Rights in Technical Data and Computer Software clause at DFARS
 252.227-7013.
  
 Gaussian, Inc.
 Carnegie Office Park, Building 6, Pittsburgh, PA 15106 USA
  
 The following legend is applicable only to US Government
 contracts under FAR:
  
                    RESTRICTED RIGHTS LEGEND
  
 Use, reproduction and disclosure by the US Government is subject
 to restrictions as set forth in subparagraph (c) of the
 Commercial Computer Software - Restricted Rights clause at FAR
 52.227-19.
  
 Gaussian, Inc.
 Carnegie Office Park, Building 6, Pittsburgh, PA 15106 USA
  
  
 ---------------------------------------------------------------
 Warning -- This program may not be used in any manner that
 competes with the business of Gaussian, Inc. or will provide
 assistance to any competitor of Gaussian, Inc.  The licensee
 of this program is prohibited from giving any competitor of
 Gaussian, Inc. access to this program.  By using this program,
 the user acknowledges that Gaussian, Inc. is engaged in the
 business of creating and licensing software in the field of
 computational chemistry and represents and warrants to the
 licensee that it is not a competitor of Gaussian, Inc. and that
 it will not use this program in any manner prohibited above.
 ---------------------------------------------------------------
  

 Cite this work as:
 Gaussian 98, Revision A.11.3,
 M. J. Frisch, G. W. Trucks, H. B. Schlegel, G. E. Scuseria, 
 M. A. Robb, J. R. Cheeseman, V. G. Zakrzewski, J. A. Montgomery, Jr., 
 R. E. Stratmann, J. C. Burant, S. Dapprich, J. M. Millam, 
 A. D. Daniels, K. N. Kudin, M. C. Strain, O. Farkas, J. Tomasi, 
 V. Barone, M. Cossi, R. Cammi, B. Mennucci, C. Pomelli, C. Adamo, 
 S. Clifford, J. Ochterski, G. A. Petersson, P. Y. Ayala, Q. Cui, 
 K. Morokuma, N. Rega, P. Salvador, J. J. Dannenberg, D. K. Malick, 
 A. D. Rabuck, K. Raghavachari, J. B. Foresman, J. Cioslowski, 
 J. V. Ortiz, A. G. Baboul, B. B. Stefanov, G. Liu, A. Liashenko, 
 P. Piskorz, I. Komaromi, R. Gomperts, R. L. Martin, D. J. Fox, 
 T. Keith, M. A. Al-Laham, C. Y. Peng, A. Nanayakkara, M. Challacombe, 
 P. M. W. Gill, B. Johnson, W. Chen, M. W. Wong, J. L. Andres, 
 C. Gonzalez, M. Head-Gordon, E. S. Replogle, and J. A. Pople, 
 Gaussian, Inc., Pittsburgh PA, 2002.

 *******************************************
 Gaussian 98:  SGI64-G98RevA.11.3 5-Feb-2002
                  1-Aug-2002 
 *******************************************
 %chk=xx2
 --------------------------------------------------------
 #HF/6-31G* SCF=tight Test Pop=MK iop(6/33=2) iop(6/42=6)
 --------------------------------------------------------
 1/38=1/1;
 2/17=6,18=5,40=1/2;
 3/5=1,6=6,7=1,11=9,25=1,30=1/1,2,3;
 4//1;
 5/5=2,32=2,38=4/2;
 6/7=2,8=2,9=2,10=2,15=8,20=1,28=1,33=2,42=6/1,2;
 99/5=1,9=1/99;
 ---------------------
 remark line goes here
 ---------------------
 Symbolic Z-matrix:
 Charge =  0 Multiplicity = 1
 H                    -2.79401  -1.1215    1.80167 
 C                    -3.1939   -0.89273   0.82081 
 H                    -3.94312  -0.11461   0.9267 
 H                    -3.67356  -1.76876   0.40736 
 C                    -2.13587  -0.41622  -0.14964 
 O                    -2.27066  -0.53177  -1.33885 
 N                    -1.05521   0.16996   0.4143 
 H                    -0.97444   0.21994   1.40391 
 C                     0.03997   0.71841  -0.35825 
 H                    -0.10524   0.38334  -1.37454 
 C                     0.06431   2.24563  -0.31869 
 H                     0.88763   2.63252  -0.91184 
 H                    -0.86295   2.63654  -0.72118 
 H                     0.18557   2.59534   0.69952 
 C                     1.33113   0.15402   0.22707 
 O                     1.61609   0.35698   1.37963 
 N                     2.09997  -0.56898  -0.6051 
 H                     1.74855  -0.79333  -1.5054 
 C                     3.31872  -1.20622  -0.15324 
 H                     3.11446  -2.09409   0.43617 
 H                     3.90899  -1.48491  -1.01641 
 H                     3.88531  -0.51616   0.45505 
 ------------------------------------------------------------------------
                         Z-MATRIX (ANGSTROMS AND DEGREES)
 CD Cent Atom  N1     Length/X     N2    Alpha/Y     N3     Beta/Z      J
 ------------------------------------------------------------------------
   1   1  H     0  -2.794013         -1.121503          1.801666
   2   2  C     0  -3.193899         -0.892731          0.820806
   3   3  H     0  -3.943124         -0.114611          0.926702
   4   4  H     0  -3.673562         -1.768756          0.407363
   5   5  C     0  -2.135869         -0.416220         -0.149639
   6   6  O     0  -2.270663         -0.531772         -1.338852
   7   7  N     0  -1.055212          0.169955          0.414298
   8   8  H     0  -0.974441          0.219939          1.403910
   9   9  C     0   0.039967          0.718405         -0.358249
  10  10  H     0  -0.105242          0.383339         -1.374538
  11  11  C     0   0.064305          2.245626         -0.318687
  12  12  H     0   0.887629          2.632515         -0.911835
  13  13  H     0  -0.862946          2.636544         -0.721176
  14  14  H     0   0.185569          2.595336          0.699523
  15  15  C     0   1.331127          0.154017          0.227069
  16  16  O     0   1.616089          0.356975          1.379630
  17  17  N     0   2.099971         -0.568984         -0.605097
  18  18  H     0   1.748550         -0.793325         -1.505403
  19  19  C     0   3.318718         -1.206221         -0.153240
  20  20  H     0   3.114461         -2.094088          0.436170
  21  21  H     0   3.908991         -1.484912         -1.016410
  22  22  H     0   3.885305         -0.516157          0.455048
 ------------------------------------------------------------------------
                         Z-Matrix orientation:                         
 ---------------------------------------------------------------------
 Center     Atomic     Atomic              Coordinates (Angstroms)
 Number     Number      Type              X           Y           Z
 ---------------------------------------------------------------------
    1          1             0       -2.794013   -1.121503    1.801666
    2          6             0       -3.193899   -0.892731    0.820806
    3          1             0       -3.943124   -0.114611    0.926702
    4          1             0       -3.673562   -1.768756    0.407363
    5          6             0       -2.135869   -0.416220   -0.149639
    6          8             0       -2.270663   -0.531772   -1.338852
    7          7             0       -1.055212    0.169955    0.414298
    8          1             0       -0.974441    0.219939    1.403910
    9          6             0        0.039967    0.718405   -0.358249
   10          1             0       -0.105242    0.383339   -1.374538
   11          6             0        0.064305    2.245626   -0.318687
   12          1             0        0.887629    2.632515   -0.911835
   13          1             0       -0.862946    2.636544   -0.721176
   14          1             0        0.185569    2.595336    0.699523
   15          6             0        1.331127    0.154017    0.227069
   16          8             0        1.616089    0.356975    1.379630
   17          7             0        2.099971   -0.568984   -0.605097
   18          1             0        1.748550   -0.793325   -1.505403
   19          6             0        3.318718   -1.206221   -0.153240
   20          1             0        3.114461   -2.094088    0.436170
   21          1             0        3.908991   -1.484912   -1.016410
   22          1             0        3.885305   -0.516157    0.455048
 ---------------------------------------------------------------------
                    Distance matrix (angstroms):
                    1          2          3          4          5
     1  H    0.000000
     2  C    1.083666   0.000000
     3  H    1.760639   1.085368   0.000000
     4  H    1.771052   1.080940   1.754586   0.000000
     5  C    2.176734   1.512697   2.125006   2.122288   0.000000
     6  O    3.237983   2.376295   2.846732   2.558813   1.202393
     7  N    2.572175   2.422505   2.946790   3.257976   1.352570
     8  H    2.295325   2.550302   3.025348   3.497609   2.041354
     9  C    4.010229   3.800502   4.267321   4.534581   2.462753
    10  H    4.425190   3.998461   4.502555   4.532063   2.502622
    11  C    4.899330   4.665150   4.814686   5.532997   3.457567
    12  H    5.916944   5.664651   5.853469   6.474252   4.360879
    13  H    4.921043   4.501870   4.446555   5.346011   3.356539
    14  H    4.889532   4.858202   4.943837   5.832971   3.896103
    15  C    4.595986   4.682314   5.327229   5.364371   3.533715
    16  O    4.670440   5.001003   5.597534   5.783117   4.124765
    17  N    5.481684   5.492092   6.250749   5.983161   4.262994
    18  H    5.628435   5.463418   6.226632   5.831761   4.131466
    19  C    6.418280   6.592513   7.422414   7.037237   5.511500
    20  H    6.141707   6.433243   7.346323   6.795876   5.542958
    21  H    7.280376   7.360509   8.204213   7.720285   6.199494
    22  H    6.840549   7.098642   7.852897   7.662098   6.052286
                    6          7          8          9         10
     6  O    0.000000
     7  N    2.245724   0.000000
     8  H    3.125381   0.994160   0.000000
     9  C    2.804200   1.448117   2.093489   0.000000
    10  H    2.351117   2.036642   2.915815   1.079907   0.000000
    11  C    3.769185   2.469614   2.854775   1.527927   2.147482
    12  H    4.491087   3.405505   3.827597   2.165365   2.501735
    13  H    3.521565   2.722192   3.220000   2.150866   2.465346
    14  H    4.468428   2.739227   2.735744   2.159387   3.046183
    15  C    3.986892   2.393726   2.589391   1.525852   2.163536
    16  O    4.825646   2.846523   2.594266   2.373819   3.247940
    17  N    4.431955   3.397113   3.756397   2.441704   2.522285
    18  H    4.031156   3.531889   4.111628   2.553536   2.199593
    19  C    5.753411   4.620306   4.784335   3.807417   3.967590
    20  H    5.881419   4.744738   4.796912   4.241902   4.447785
    21  H    6.261036   5.424834   5.710724   4.500792   4.442149
    22  H    6.412040   4.988098   5.005927   4.119735   4.481177
                   11         12         13         14         15
    11  C    0.000000
    12  H    1.085988   0.000000
    13  H    1.083794   1.760932   0.000000
    14  H    1.083399   1.758052   1.766201   0.000000
    15  C    2.505497   2.763466   3.446167   2.737801   0.000000
    16  O    2.976460   3.310521   3.969312   2.742115   1.204488
    17  N    3.485398   3.437071   4.366665   3.921720   1.344006
    18  H    3.671539   3.581883   4.381658   4.334470   2.018207
    19  C    4.746981   4.606686   5.707513   4.999566   2.438319
    20  H    5.357833   5.395987   6.287933   5.535202   2.877148
    21  H    5.402346   5.108108   6.312285   5.784179   3.298138
    22  H    4.777672   4.557254   5.819701   4.840372   2.650459
                   16         17         18         19         20
    16  O    0.000000
    17  N    2.242918   0.000000
    18  H    3.108722   0.992157   0.000000
    19  C    2.773485   1.447615   2.112878   0.000000
    20  H    3.023730   2.106981   2.706918   1.085096   0.000000
    21  H    3.793541   2.068975   2.320541   1.082198   1.764189
    22  H    2.601260   2.077045   2.913059   1.080381   1.756253
                   21         22
    21  H    0.000000
    22  H    1.761884   0.000000
                           Interatomic angles:
       H1-C2-H3=108.5278       H1-C2-H4=109.8073       H1-H3-H4= 60.5062
       H3-C2-H4=108.1806       H1-C2-C5=112.8968       H1-H3-C5= 67.3855
       H3-C2-C5=108.6371       H1-H4-C5= 67.2871       H4-C2-C5=108.6802
       H3-H4-C5= 65.6807       H1-C2-O6=135.3419       H1-H3-O6= 85.8857
       H3-C2-O6=104.3572       H1-H4-O6= 95.0663       H4-C2-O6= 87.0131
       H3-H4-O6= 80.2398       H1-C5-O6=145.243        C2-C5-O6=121.7233
       H3-C5-O6=114.7878       H4-C5-O6= 96.7251       H1-C2-N7= 85.3375
       H3-H1-N7= 83.4552       H3-C2-N7=108.1377       H4-H1-N7= 95.4271
       H4-C2-N7=133.0854       H4-H3-N7= 83.6275       H1-C5-N7= 90.4716
       C2-C5-N7=115.3319       H3-C5-N7=114.0041       H4-C5-N7=138.2152
       H1-N7-O6= 84.1634       C2-O6-N7= 63.144        H3-O6-N7= 69.5677
       H4-O6-N7= 85.1264       O6-C5-N7=122.9279       C2-H1-H8= 90.7047
       H3-H1-H8= 95.569        H3-C2-H8=105.4058       H4-H1-H8=118.0894
       H4-C2-H8=145.8136       H1-C5-H8= 65.8438       C2-C5-H8= 90.4514
       H3-C5-H8= 93.1051       H4-C5-H8=114.2738       O6-C2-H8= 78.6622
       O6-C5-H8=147.8251       H1-H8-N7= 94.5143       C2-N7-H8= 85.799 
       H3-N7-H8= 84.9162       C5-N7-H8=120.1146       O6-N7-H8=146.8009
       H1-C5-C9=119.4944       C2-C5-C9=144.827        H3-C5-C9=136.7945
       H4-C5-C9=162.9362       C2-O6-C9= 94.0166       H3-O6-C9= 98.0748
       H4-O6-C9=115.3814       O6-C5-C9= 93.4135       H1-N7-C9=171.5531
       C2-N7-C9=157.4185       H3-N7-C9=150.5175       C5-N7-C9=123.0893
       O6-N7-C9= 96.3841       H1-H8-C9=132.0005       C2-H8-C9=109.4583
       C5-H8-C9= 73.0999       O6-C9-H8= 77.8148       H8-N7-C9=116.7794
      H1-C5-H10=141.9623      C2-C5-H10=169.1601      H3-C5-H10=153.2064
      H4-C5-H10=156.9207      C2-O6-H10=115.5152      H3-O6-H10=119.7451
      H4-O6-H10=134.7066      C5-O6-H10= 82.7821      H1-N7-H10=147.3166
      C2-N7-H10=127.2389      H3-N7-H10=128.3136      C5-N7-H10= 92.9732
      O6-N7-H10= 66.3914      H1-H8-H10=115.7336      C2-H8-H10= 93.7846
      H8-C5-H10= 79.1218      O6-H10-H8= 71.8908      H8-N7-H10=146.2165
      C5-C9-H10= 79.512       O6-H10-C9=103.3163      N7-C9-H10=106.4305
      H8-C9-H10=130.7768      H1-N7-C11=152.6889      C2-N7-C11=144.9557
      H3-N7-C11=125.2421      C5-N7-C11=127.0624      O6-N7-C11=106.038 
      H1-H8-C11=143.8722      C2-H8-C11=119.2274      C5-H8-C11= 88.2197
      H8-N7-C11=102.4951      C5-C9-C11=118.189       O6-C9-C11=117.8914
      N7-C9-C11=112.1351      H8-C9-C11=102.9392     C5-H10-C11= 95.7665
     O6-H10-C11=113.7525     N7-H10-C11= 72.2923     H8-C11-H10= 69.6721
     H10-C9-C11=109.6722      C5-C9-H12=140.784       O6-C9-H12=128.8478
      N7-C9-H12=140.1058      H8-C9-H12=127.9776     C5-H10-H12=121.2473
     O6-H10-H12=135.451      N7-H10-H12= 96.7111     H8-H10-H12= 89.5674
     H10-C9-H12= 94.9516     N7-C11-H12=143.6305     H8-C11-H12=149.1172
     C9-C11-H12=110.7337    H10-C11-H12= 95.754       H1-N7-H13=136.6916
      C2-N7-H13=121.9941      H3-N7-H13=103.2529      C5-N7-H13=105.9742
      O6-N7-H13= 89.7554      H8-N7-H13=111.3408      C5-C9-H13= 93.1112
      O6-C9-H13= 89.5804      N7-C9-H13= 96.3322      H8-C9-H13= 98.6825
     C5-H10-H13= 85.0036     O6-H10-H13= 93.936      N7-H10-H13= 73.7176
     H8-H10-H13= 72.9663     H10-C9-H13= 93.5236     N7-C11-H13= 91.4636
     H8-C11-H13= 99.7136     C9-C11-H13=109.7115    H10-C11-H13= 93.5921
     N7-H13-H12= 96.5057     C9-H13-H12= 66.3535    H10-H13-H12= 70.3472
    H12-C11-H13=108.4993      H1-N7-H14=133.9959      C2-N7-H14=140.4291
      H3-N7-H14=120.7515      C5-N7-H14=142.0963      O6-N7-H14=127.0935
      H1-H8-H14=152.6473      C2-H8-H14=133.5483      C5-H8-H14=108.4142
      N7-H8-H14= 79.7355      C5-C9-H14=114.7418      O6-C9-H14=127.9056
      N7-C9-H14= 96.8264      H8-C9-H14= 80.0557     H10-N7-H14= 77.7256
     H10-H8-H14= 65.14       H10-C9-H14=137.7098     N7-C11-H14= 92.47  
     H8-H14-C11= 85.0809     C9-C11-H14=110.4114    H10-C11-H14=138.6635
     N7-H14-H12= 95.9796     H8-H14-H12=115.0673     C9-H14-H12= 66.1924
    H10-H12-H14= 89.5428    H12-C11-H14=108.2682     N7-H13-H14= 71.6553
     H8-H14-H13= 88.6044     C9-H13-H14= 66.0622    H10-H13-H14= 90.5384
    H13-C11-H14=109.1692    H13-H12-H14= 60.2524      H1-N7-C15=135.4602
      C2-N7-C15=152.9136      H3-N7-C15=171.8714      C5-N7-C15=139.5527
      O6-N7-C15=118.4517      H1-H8-C15=140.3285      C2-H8-C15=131.2893
      C5-H8-C15= 98.7876      H8-N7-C15= 89.8395      C5-C9-C15=123.0043
      O6-C9-C15=131.7967      N7-C9-C15=107.1709      H8-C9-C15= 89.9464
     C5-H10-C15= 98.1925     O6-H10-C15=123.9847     N7-H10-C15= 69.4125
     H8-C15-H10= 75.0851     H10-C9-C15=111.1014     C11-N7-C15= 61.9958
     H8-C15-C11= 68.1331     C11-C9-C15=110.2613    C11-H10-C15= 71.0667
     N7-C15-H12= 82.315      H8-C15-H12= 91.2364     H12-C9-C15= 95.3812
    H12-H10-C15= 72.2355    H12-C11-C15= 91.894      H13-N7-C15= 84.4333
     H13-C9-C15=138.574     H13-H10-C15= 96.0117    H13-C11-C15=144.5468
    H13-H12-C15= 96.7174     N7-C15-H14= 64.115      H14-H8-C15= 61.8061
     H14-C9-C15= 94.3897    H10-C15-H14= 75.8442    H14-C11-C15= 90.4674
    H12-H14-C15= 72.1574    H13-H14-C15= 97.4924      H1-N7-O16=118.9773
      C2-N7-O16=143.1693      H3-N7-O16=150.1198      C5-N7-O16=156.8753
      O6-N7-O16=142.4842      H1-H8-O16=145.4954      C2-H8-O16=152.8639
      C5-H8-O16=125.2727      N7-H8-O16= 94.2707      C5-C9-O16=117.0294
      O6-C9-O16=137.3263      N7-C9-O16= 93.0903      H8-C9-O16= 70.6849
     H10-N7-O16= 81.5616     H10-H8-O16= 71.9681     H10-C9-O16=136.9713
     C11-N7-O16= 67.6676     C11-H8-O16= 66.0169     C11-C9-O16= 97.0453
    H10-C11-O16= 76.7876     H12-C9-O16= 93.5454    H12-C11-O16= 98.1892
     H13-N7-O16= 90.8963     H13-C9-O16=122.5502    H13-C11-O16=152.4759
     N7-H14-O16= 62.5721     H14-H8-O16= 61.8563     H14-C9-O16= 74.2734
    C11-H14-O16= 91.6045    H12-H14-O16= 92.078     H13-H14-O16=121.8874
     N7-C15-O16= 99.2003     H8-C15-O16= 76.7894     C9-C15-O16=120.3268
    H10-C15-O16=147.9479    C11-C15-O16=100.8003    H12-C15-O16=106.3321
    H14-C15-O16= 77.5029      C5-C9-N17=120.7329      O6-C9-N17=115.1358
      N7-C9-N17=119.4918      H8-C9-N17=111.6146     C5-H10-N17=116.0697
     O6-H10-N17=130.8175     N7-H10-N17= 95.7568     H8-H10-N17= 87.0641
     H10-C9-N17= 81.646      C11-C9-N17=121.0767    C11-H10-N17= 96.2235
     H12-C9-N17= 96.3129    H12-H10-N17= 86.333      H13-C9-N17=143.8338
    H13-H10-N17=122.204      H14-C9-N17=116.8027     N7-C15-N17=128.4843
     H8-C15-N17=143.5571     C9-C15-N17=116.4572    H10-C15-N17= 88.7653
    C11-C15-N17=127.1175    H12-C15-N17=108.6086    H14-C15-N17=145.6796
     N7-O16-N17= 82.8334     H8-O16-N17=101.6482     C9-O16-N17= 63.7858
    H10-N17-O16= 85.7247    C11-O16-N17= 82.5033    H14-O16-N17=103.3012
    O16-C15-N17=123.2149      C5-C9-H18=110.8827      O6-C9-H18= 97.4873
      N7-C9-H18=121.4314      H8-C9-H18=124.1525     C5-H10-H18=122.8232
     O6-H10-H18=124.6744     N7-H10-H18=112.9121     H8-H10-H18=106.1378
     C9-H10-H18= 96.2372     C11-C9-H18=126.3499    C11-H10-H18=115.253 
     H12-C9-H18= 98.4265    H12-H10-H18= 99.0598     H13-C9-H18=137.1417
    H13-H10-H18=139.792      H14-C9-H18=133.5922     N7-C15-H18=106.049 
     H8-C15-H18=125.8913     C9-C15-H18= 91.1086    H10-C15-H18= 63.359 
    C11-C15-H18=108.026     H12-C15-H18= 95.7626    H14-C15-H18=130.7865
     O16-C9-H18= 78.1408    O16-C15-H18=148.3835     C9-N17-H18= 84.9588
    H10-H18-N17= 97.0981    C15-N17-H18=118.7418    O16-N17-H18=145.0747
     N7-C15-C19=145.9497     H8-C15-C19=144.1829     C9-C15-C19=146.7495
    H10-C15-C19=119.0022    C11-C15-C19=147.5525    H12-C15-C19=124.5324
    H14-C15-C19=149.9329     N7-O16-C19=110.5879     H8-O16-C19=126.0444
     C9-O16-C19= 95.0942    C11-O16-C19=111.2437    H14-O16-C19=130.0353
    O16-C15-C19= 92.8888     C9-N17-C19=155.62      H10-N17-C19=175.9386
    C15-N17-C19=121.6782    O16-N17-C19= 94.9998     C9-H18-C19=108.9918
    H10-H18-C19=133.8502    C15-H18-C19= 72.3065    O16-C19-H18= 77.7221
    H18-N17-C19=118.81       N7-C15-H20=128.1289     H8-C15-H20=122.5986
     C9-C15-H20=147.2866    H10-C15-H20=123.2383    C11-C15-H20=168.9667
    H12-C15-H20=146.1211    H14-C15-H20=160.658     O16-C15-H20= 85.1514
     C9-N17-H20=137.5529    H10-N17-H20=147.6735    C15-N17-H20=111.0283
    O16-N17-H20= 88.0167     C9-H18-H20=107.4509    H10-H18-H20=129.7662
    C15-H18-H20= 73.3941    H18-N17-H20=117.0856    C15-C19-H20=102.609 
    O16-C19-H20= 92.6024    N17-C19-H20=111.7932    H18-C19-H20=111.5696
     C9-N17-H21=172.3853    H10-N17-H21=150.5684    C15-N17-H21=149.476 
    O16-N17-H21=123.1826     C9-H18-H21=134.8063    H10-H18-H21=158.6753
    C15-H18-H21= 98.7175    H18-N17-H21= 91.6733    C15-C19-H21=135.4533
    O16-C19-H21=157.0456    N17-C19-H21=108.8809    H18-C19-H21= 86.86  
    C15-H20-H21= 87.1055    N17-H21-H20= 66.1338    H18-H21-H20= 81.7854
    H20-C19-H21=108.9782     N7-C15-H22=162.8733     H8-C15-H22=145.6281
     C9-C15-H22=160.3854    H10-C15-H22=136.908     C11-C15-H22=135.813 
    H12-C15-H22=114.638     H14-C15-H22=127.8684     N7-O16-H22=132.5367
     H8-O16-H22=148.9473     C9-O16-H22=111.7217    C11-O16-H22=117.709 
    H14-O16-H22=129.8613    C15-O16-H22= 79.0304     C9-N17-H22=131.3131
    H10-N17-H22=153.8448    C15-N17-H22= 99.323     O16-N17-H22= 73.9357
     C9-H18-H22= 97.5928    H10-H18-H22=121.8202    H18-C15-H22= 75.8674
    O16-H22-H18= 68.3622    H18-N17-H22=140.6568    C15-C19-H22= 89.0463
    O16-H22-C19= 87.5369    N17-C19-H22=109.6394    H18-C19-H22=128.6989
    C15-H22-H20= 78.655     O16-H22-H20= 85.5556    N17-H22-H20= 66.0707
    H18-H20-H22= 78.3135    H20-C19-H22=108.3919    C15-H22-H21= 94.597 
    O16-H22-H21=119.5467    N17-H21-H22= 65.0898    H18-H21-H22= 89.9773
    H21-C19-H22=109.1182    H20-H22-H21= 60.1924
 Stoichiometry    C6H12N2O2
 Framework group  C1[X(C6H12N2O2)]
 Deg. of freedom   60
 Full point group                 C1      NOp   1
 Largest Abelian subgroup         C1      NOp   1
 Largest concise Abelian subgroup C1      NOp   1
                         Standard orientation:                         
 ---------------------------------------------------------------------
 Center     Atomic     Atomic              Coordinates (Angstroms)
 Number     Number      Type              X           Y           Z
 ---------------------------------------------------------------------
    1          1             0       -2.794013   -1.121503    1.801666
    2          6             0       -3.193899   -0.892731    0.820806
    3          1             0       -3.943124   -0.114611    0.926702
    4          1             0       -3.673562   -1.768756    0.407363
    5          6             0       -2.135869   -0.416220   -0.149639
    6          8             0       -2.270663   -0.531772   -1.338852
    7          7             0       -1.055212    0.169955    0.414298
    8          1             0       -0.974441    0.219939    1.403910
    9          6             0        0.039967    0.718405   -0.358249
   10          1             0       -0.105242    0.383339   -1.374538
   11          6             0        0.064305    2.245626   -0.318687
   12          1             0        0.887629    2.632515   -0.911835
   13          1             0       -0.862946    2.636544   -0.721176
   14          1             0        0.185569    2.595336    0.699523
   15          6             0        1.331127    0.154017    0.227069
   16          8             0        1.616089    0.356975    1.379630
   17          7             0        2.099971   -0.568984   -0.605097
   18          1             0        1.748550   -0.793325   -1.505403
   19          6             0        3.318718   -1.206221   -0.153240
   20          1             0        3.114461   -2.094088    0.436170
   21          1             0        3.908991   -1.484912   -1.016410
   22          1             0        3.885305   -0.516157    0.455048
 ---------------------------------------------------------------------
 Rotational constants (GHZ):      2.1736950      0.7142362      0.6679224
 Isotopes: H-1,C-12,H-1,H-1,C-12,O-16,N-14,H-1,C-12,H-1,C-12,H-1,H-1,H-1,C-12,O-1
 6,N-14,H-1,C-12,H-1,H-1,H-1
 Standard basis: 6-31G(d) (6D, 7F)
 There are   174 symmetry adapted basis functions of A   symmetry.
 Crude estimate of integral set expansion from redundant integrals=1.000.
 Integral buffers will be    131072 words long.
 Raffenetti 1 integral format.
 Two-electron integral symmetry is turned on.
   174 basis functions      328 primitive gaussians
    39 alpha electrons       39 beta electrons
       nuclear repulsion energy       553.9722438126 Hartrees.
 One-electron integrals computed using PRISM.
 NBasis=   174 RedAO= T  NBF=   174
 NBsUse=   174 1.00D-04 NBFU=   174
 Projected INDO Guess.
 Requested convergence on RMS density matrix=1.00D-08 within  64 cycles.
 Requested convergence on MAX density matrix=1.00D-06.
 Integral accuracy reduced to 1.0D-05 until final iterations.
 Initial convergence to 1.0D-05 achieved.  Increase integral accuracy.
 SCF Done:  E(RHF) =  -492.858912339     A.U. after   15 cycles
             Convg  =    0.4310D-08             -V/T =  2.0015
             S**2   =   0.0000

 **********************************************************************

            Population analysis using the SCF density.

 **********************************************************************

 Alpha  occ. eigenvalues --  -20.52664 -20.52022 -15.59395 -15.58632 -11.34934
 Alpha  occ. eigenvalues --  -11.34763 -11.27812 -11.26226 -11.23230 -11.22201
 Alpha  occ. eigenvalues --   -1.39765  -1.38799  -1.24256  -1.23706  -1.05634
 Alpha  occ. eigenvalues --   -0.99285  -0.96549  -0.87914  -0.80285  -0.79266
 Alpha  occ. eigenvalues --   -0.73224  -0.67316  -0.65854  -0.64554  -0.62769
 Alpha  occ. eigenvalues --   -0.62222  -0.60160  -0.58501  -0.57754  -0.56679
 Alpha  occ. eigenvalues --   -0.55818  -0.53780  -0.52361  -0.51954  -0.50383
 Alpha  occ. eigenvalues --   -0.42993  -0.41728  -0.39661  -0.38364
 Alpha virt. eigenvalues --    0.18968   0.21359   0.21859   0.23064   0.26419
 Alpha virt. eigenvalues --    0.27156   0.28627   0.30792   0.30896   0.32255
 Alpha virt. eigenvalues --    0.32326   0.33538   0.33726   0.35350   0.37641
 Alpha virt. eigenvalues --    0.39442   0.41260   0.42403   0.46036   0.49620
 Alpha virt. eigenvalues --    0.52118   0.59772   0.63393   0.71100   0.71778
 Alpha virt. eigenvalues --    0.73771   0.74192   0.75853   0.77135   0.77637
 Alpha virt. eigenvalues --    0.80801   0.82179   0.84268   0.86406   0.88819
 Alpha virt. eigenvalues --    0.89264   0.95023   0.97352   0.97600   1.00337
 Alpha virt. eigenvalues --    1.02076   1.03149   1.04654   1.06618   1.07972
 Alpha virt. eigenvalues --    1.09428   1.11866   1.13678   1.14043   1.15526
 Alpha virt. eigenvalues --    1.16473   1.18436   1.19223   1.20174   1.20549
 Alpha virt. eigenvalues --    1.21457   1.22120   1.22651   1.24032   1.24927
 Alpha virt. eigenvalues --    1.27866   1.35290   1.35926   1.37152   1.39041
 Alpha virt. eigenvalues --    1.43581   1.48774   1.51901   1.56124   1.57595
 Alpha virt. eigenvalues --    1.65386   1.67140   1.73147   1.75210   1.76952
 Alpha virt. eigenvalues --    1.80055   1.84793   1.87291   1.88273   1.96056
 Alpha virt. eigenvalues --    2.00711   2.03955   2.06534   2.10774   2.11447
 Alpha virt. eigenvalues --    2.14752   2.16309   2.18645   2.19866   2.21884
 Alpha virt. eigenvalues --    2.24715   2.26862   2.29063   2.33955   2.35076
 Alpha virt. eigenvalues --    2.36653   2.40640   2.41690   2.47581   2.49405
 Alpha virt. eigenvalues --    2.53674   2.54919   2.58018   2.59819   2.61971
 Alpha virt. eigenvalues --    2.64931   2.67796   2.71149   2.73007   2.77519
 Alpha virt. eigenvalues --    2.80769   2.83329   2.86915   2.96900   2.98727
 Alpha virt. eigenvalues --    3.03471   3.04682   3.06697   3.12762   3.26637
 Alpha virt. eigenvalues --    3.30749   3.37711   3.39755   3.54216   3.57391
 Alpha virt. eigenvalues --    4.37937   4.43119   4.50051   4.60589   4.62529
 Alpha virt. eigenvalues --    4.68026   4.74831   4.81171   4.92250   5.09837
          Condensed to atoms (all electrons):
              1          2          3          4          5          6
  1  H    0.524620   0.374237  -0.023356  -0.021980  -0.037129   0.002579
  2  C    0.374237   5.258298   0.377794   0.383928   0.370724  -0.074420
  3  H   -0.023356   0.377794   0.487173  -0.018376  -0.026440   0.000063
  4  H   -0.021980   0.383928  -0.018376   0.470393  -0.031104   0.002495
  5  C   -0.037129   0.370724  -0.026440  -0.031104   4.136693   0.611396
  6  O    0.002579  -0.074420   0.000063   0.002495   0.611396   8.162671
  7  N    0.005590  -0.115035   0.000381   0.003566   0.265517  -0.105076
  8  H    0.001083  -0.000581   0.000064   0.000005  -0.014072   0.002104
  9  C   -0.000014   0.005017  -0.000199  -0.000099  -0.025889   0.000514
 10  H   -0.000033   0.000643  -0.000015  -0.000004  -0.001032   0.012404
 11  C   -0.000002  -0.000236   0.000041  -0.000001   0.000020  -0.000232
 12  H    0.000000   0.000003   0.000000   0.000000  -0.000041  -0.000013
 13  H   -0.000002  -0.000004  -0.000004   0.000001   0.000634   0.000419
 14  H    0.000001  -0.000006  -0.000001   0.000000   0.000005  -0.000017
 15  C   -0.000018  -0.000090  -0.000002   0.000005   0.001745   0.000452
 16  O   -0.000005  -0.000010   0.000000   0.000000   0.000249  -0.000002
 17  N    0.000000  -0.000004   0.000000   0.000000   0.000024  -0.000046
 18  H    0.000000   0.000000   0.000000   0.000000   0.000006  -0.000021
 19  C    0.000000   0.000000   0.000000   0.000000  -0.000004   0.000000
 20  H    0.000000   0.000000   0.000000   0.000000   0.000000   0.000000
 21  H    0.000000   0.000000   0.000000   0.000000   0.000000   0.000000
 22  H    0.000000   0.000000   0.000000   0.000000   0.000000   0.000000
              7          8          9         10         11         12
  1  H    0.005590   0.001083  -0.000014  -0.000033  -0.000002   0.000000
  2  C   -0.115035  -0.000581   0.005017   0.000643  -0.000236   0.000003
  3  H    0.000381   0.000064  -0.000199  -0.000015   0.000041   0.000000
  4  H    0.003566   0.000005  -0.000099  -0.000004  -0.000001   0.000000
  5  C    0.265517  -0.014072  -0.025889  -0.001032   0.000020  -0.000041
  6  O   -0.105076   0.002104   0.000514   0.012404  -0.000232  -0.000013
  7  N    7.407866   0.316730   0.181841  -0.039660  -0.067223   0.004635
  8  H    0.316730   0.305638  -0.025708   0.003052   0.000563  -0.000034
  9  C    0.181841  -0.025708   5.089636   0.405494   0.349277  -0.037399
 10  H   -0.039660   0.003052   0.405494   0.458104  -0.032513  -0.000328
 11  C   -0.067223   0.000563   0.349277  -0.032513   5.121992   0.384056
 12  H    0.004635  -0.000034  -0.037399  -0.000328   0.384056   0.529172
 13  H   -0.001530  -0.000184  -0.036469  -0.003387   0.392613  -0.023464
 14  H   -0.001345   0.001602  -0.035467   0.003434   0.390582  -0.023483
 15  C   -0.051281  -0.003082   0.355457  -0.046404  -0.057293  -0.001403
 16  O   -0.001175   0.009804  -0.084333   0.002438   0.001356  -0.000032
 17  N    0.001327   0.000484  -0.093893   0.005525   0.000371   0.000690
 18  H   -0.000023  -0.000026   0.000628   0.002213   0.000110  -0.000026
 19  C   -0.000196  -0.000010   0.005068  -0.000034  -0.000208  -0.000018
 20  H    0.000042   0.000005  -0.000248   0.000004  -0.000008   0.000001
 21  H    0.000000   0.000000  -0.000011  -0.000021   0.000004  -0.000001
 22  H   -0.000011  -0.000004   0.000113  -0.000011   0.000032  -0.000007
             13         14         15         16         17         18
  1  H   -0.000002   0.000001  -0.000018  -0.000005   0.000000   0.000000
  2  C   -0.000004  -0.000006  -0.000090  -0.000010  -0.000004   0.000000
  3  H   -0.000004  -0.000001  -0.000002   0.000000   0.000000   0.000000
  4  H    0.000001   0.000000   0.000005   0.000000   0.000000   0.000000
  5  C    0.000634   0.000005   0.001745   0.000249   0.000024   0.000006
  6  O    0.000419  -0.000017   0.000452  -0.000002  -0.000046  -0.000021
  7  N   -0.001530  -0.001345  -0.051281  -0.001175   0.001327  -0.000023
  8  H   -0.000184   0.001602  -0.003082   0.009804   0.000484  -0.000026
  9  C   -0.036469  -0.035467   0.355457  -0.084333  -0.093893   0.000628
 10  H   -0.003387   0.003434  -0.046404   0.002438   0.005525   0.002213
 11  C    0.392613   0.390582  -0.057293   0.001356   0.000371   0.000110
 12  H   -0.023464  -0.023483  -0.001403  -0.000032   0.000690  -0.000026
 13  H    0.507291  -0.024805   0.004953  -0.000012  -0.000089  -0.000007
 14  H   -0.024805   0.500823  -0.005626   0.005141   0.000412  -0.000007
 15  C    0.004953  -0.005626   4.199611   0.585806   0.288824  -0.018467
 16  O   -0.000012   0.005141   0.585806   8.203206  -0.103199   0.002459
 17  N   -0.000089   0.000412   0.288824  -0.103199   7.295865   0.325790
 18  H   -0.000007  -0.000007  -0.018467   0.002459   0.325790   0.316268
 19  C    0.000003  -0.000004  -0.032997   0.007196   0.196836  -0.022244
 20  H    0.000000   0.000000  -0.002674   0.001046  -0.046623   0.001109
 21  H    0.000000   0.000000   0.004378   0.000350  -0.037934  -0.004176
 22  H    0.000000  -0.000001  -0.002897   0.004124  -0.038807   0.002531
             19         20         21         22
  1  H    0.000000   0.000000   0.000000   0.000000
  2  C    0.000000   0.000000   0.000000   0.000000
  3  H    0.000000   0.000000   0.000000   0.000000
  4  H    0.000000   0.000000   0.000000   0.000000
  5  C   -0.000004   0.000000   0.000000   0.000000
  6  O    0.000000   0.000000   0.000000   0.000000
  7  N   -0.000196   0.000042   0.000000  -0.000011
  8  H   -0.000010   0.000005   0.000000  -0.000004
  9  C    0.005068  -0.000248  -0.000011   0.000113
 10  H   -0.000034   0.000004  -0.000021  -0.000011
 11  C   -0.000208  -0.000008   0.000004   0.000032
 12  H   -0.000018   0.000001  -0.000001  -0.000007
 13  H    0.000003   0.000000   0.000000   0.000000
 14  H   -0.000004   0.000000   0.000000  -0.000001
 15  C   -0.032997  -0.002674   0.004378  -0.002897
 16  O    0.007196   0.001046   0.000350   0.004124
 17  N    0.196836  -0.046623  -0.037934  -0.038807
 18  H   -0.022244   0.001109  -0.004176   0.002531
 19  C    4.917233   0.405640   0.397429   0.403183
 20  H    0.405640   0.526038  -0.032350  -0.031994
 21  H    0.397429  -0.032350   0.524727  -0.023982
 22  H    0.403183  -0.031994  -0.023982   0.480680
 Total atomic charges:
              1
  1  H    0.174429
  2  C   -0.580257
  3  H    0.202879
  4  H    0.211172
  5  C    0.748698
  6  O   -0.615269
  7  N   -0.804938
  8  H    0.402567
  9  C   -0.053315
 10  H    0.230131
 11  C   -0.483301
 12  H    0.167692
 13  H    0.184042
 14  H    0.188763
 15  C    0.781004
 16  O   -0.634406
 17  N   -0.795554
 18  H    0.393884
 19  C   -0.276872
 20  H    0.180013
 21  H    0.171588
 22  H    0.207051
 Sum of Mulliken charges=   0.00000
 Atomic charges with hydrogens summed into heavy atoms:
              1
  1  H    0.000000
  2  C    0.008222
  3  H    0.000000
  4  H    0.000000
  5  C    0.748698
  6  O   -0.615269
  7  N   -0.402371
  8  H    0.000000
  9  C    0.176815
 10  H    0.000000
 11  C    0.057196
 12  H    0.000000
 13  H    0.000000
 14  H    0.000000
 15  C    0.781004
 16  O   -0.634406
 17  N   -0.401670
 18  H    0.000000
 19  C    0.281780
 20  H    0.000000
 21  H    0.000000
 22  H    0.000000
 Sum of Mulliken charges=   0.00000
 Entering DenBas...
 DenBas was handed  6242190 working-precision words.
 Multipole integrals L=0 to 4 MinM= 0 MaxM= 0.
 Requested accuracy = 0.1000D-12
 PRISM was handed  6082910 working-precision words and  1846 shell-pairs
 Electronic moments (au):
   -78.00000000     0.36308872    -0.22470222    -0.00712579
 -1287.94538668  -352.09738052  -237.64584513    -3.37879220
   -11.21180788    -1.51193460    42.42369081  -591.40592660
   -39.29038710  -168.68567333  1723.79102898  -131.34249659
   151.89209332    45.88290902   103.99554647  -177.51969512
-41907.69891066 -5706.92398245 -1841.39819532  1280.01427805
  2402.64467520   391.29034021   569.11275649  -482.43184312
  -114.80235615 -4978.46880807 -4035.68264124  -789.43338535
   -71.91563341   337.55488307  -491.36009464
 Electronic spatial extent (au):  <R**2>=  1877.6886
 Nuclear    moments (au):
    78.00000000     0.00000000     0.00000000     0.00000000
  1245.02256083   308.87948131   189.29012444     0.00000000
     0.00002038    -0.00000187   -22.91601357   586.74694315
    36.69718408   172.00143460 -1741.37325863   145.72481675
  -145.05004204   -48.52864270  -104.96577108   184.80183994
 37742.64376777  4464.08808790  1083.68640215 -1367.91046077
 -2543.11486024  -385.76920469  -559.01325216   399.49844565
   126.44488816  4079.91340401  3084.42133965   459.61011791
    56.85102915  -339.04084918   451.62794517
 Total      moments (au):
     0.00000000     0.36308872    -0.22470222    -0.00712579
   -42.92282585   -43.21789921   -48.35572069    -3.37879220
   -11.21178751    -1.51193646    19.50767725    -4.65898345
    -2.59320302     3.31576127   -17.58222966    14.38232016
     6.84205128    -2.64573367    -0.97022461     7.28214482
 -4165.05514289 -1242.83589455  -757.71179317   -87.89618271
  -140.47018504     5.52113551    10.09950434   -82.93339747
    11.64253201  -898.55540406  -951.26130160  -329.82326744
   -15.06460426    -1.48596611   -39.73214947
 Charge=     0.0000 electrons
 Dipole moment (Debye):
    X=     0.9229    Y=    -0.5711    Z=    -0.0181  Tot=     1.0855
 Quadrupole moment (Debye-Ang):
   XX=   -57.7331   YY=   -58.1300   ZZ=   -65.0406
   XY=    -4.5446   XZ=   -15.0804   YZ=    -2.0336
 Octapole moment (Debye-Ang**2):
  XXX=    13.8849  YYY=    -3.3161  ZZZ=    -1.8458  XYY=     2.3601
  XXY=   -12.5145  XXZ=    10.2369  XZZ=     4.8699  YZZ=    -1.8831
  YYZ=    -0.6906  XYZ=     5.1832
 Hexadecapole moment (Debye-Ang**3):
 XXXX= -1568.7722 YYYY=  -468.1154 ZZZZ=  -285.3929 XXXY=   -33.1062
 XXXZ=   -52.9082 YYYX=     2.0795 YYYZ=     3.8040 ZZZX=   -31.2369
 ZZZY=     4.3852 XXYY=  -338.4418 XXZZ=  -358.2935 YYZZ=  -124.2283
 XXYZ=    -5.6741 YYXZ=    -0.5597 ZZXY=   -14.9652
 N-N= 5.539722438126D+02 E-N=-2.263330980513D+03  KE= 4.921369781440D+02
 Leave Link  601 at Thu Aug  1 16:17:05 2002, MaxMem=    6291456 cpu:       0.9
 Merz-Kollman atomic radii used.
 Atom Element Radius
    1     1    1.20
    2     6    1.50
    3     1    1.20
    4     1    1.20
    5     6    1.50
    6     8    1.40
    7     7    1.50
    8     1    1.20
    9     6    1.50
   10     1    1.20
   11     6    1.50
   12     1    1.20
   13     1    1.20
   14     1    1.20
   15     6    1.50
   16     8    1.40
   17     7    1.50
   18     1    1.20
   19     6    1.50
   20     1    1.20
   21     1    1.20
   22     1    1.20
 Generate VDW surfaces: Layer= 4 Dens= 6 Start= 1.400 Inc= 0.200

 **********************************************************************

            Electrostatic Properties Using The SCF Density

 **********************************************************************

       Atomic Center    1 is at  -2.794013 -1.121503  1.801666
       Atomic Center    2 is at  -3.193899 -0.892731  0.820806
       Atomic Center    3 is at  -3.943124 -0.114611  0.926702
       Atomic Center    4 is at  -3.673562 -1.768756  0.407363
       Atomic Center    5 is at  -2.135869 -0.416220 -0.149639
       Atomic Center    6 is at  -2.270663 -0.531772 -1.338852
       Atomic Center    7 is at  -1.055212  0.169955  0.414298
       Atomic Center    8 is at  -0.974441  0.219939  1.403910
       Atomic Center    9 is at   0.039967  0.718405 -0.358249
       Atomic Center   10 is at  -0.105242  0.383339 -1.374538
       Atomic Center   11 is at   0.064305  2.245626 -0.318687
       Atomic Center   12 is at   0.887629  2.632515 -0.911835
       Atomic Center   13 is at  -0.862946  2.636544 -0.721176
       Atomic Center   14 is at   0.185569  2.595336  0.699523
       Atomic Center   15 is at   1.331127  0.154017  0.227069
       Atomic Center   16 is at   1.616089  0.356975  1.379630
       Atomic Center   17 is at   2.099971 -0.568984 -0.605097
       Atomic Center   18 is at   1.748550 -0.793325 -1.505403
       Atomic Center   19 is at   3.318718 -1.206221 -0.153240
       Atomic Center   20 is at   3.114461 -2.094088  0.436170
       Atomic Center   21 is at   3.908991 -1.484912 -1.016410
       Atomic Center   22 is at   3.885305 -0.516157  0.455048
      ESP Fit Center   23 is at  -2.794013 -1.121503  3.481666
      ESP Fit Center   24 is at  -2.359197 -1.121503  3.424421
      ESP Fit Center   25 is at  -2.576605 -0.744941  3.424421
      ESP Fit Center   26 is at  -3.011421 -0.744941  3.424421
      ESP Fit Center   27 is at  -3.228829 -1.121503  3.424421
      ESP Fit Center   28 is at  -3.011421 -1.498064  3.424421
      ESP Fit Center   29 is at  -2.576605 -1.498064  3.424421
      ESP Fit Center   30 is at  -1.954013 -1.121503  3.256589
      ESP Fit Center   31 is at  -2.066552 -0.701503  3.256589
      ESP Fit Center   32 is at  -2.374013 -0.394041  3.256589
      ESP Fit Center   33 is at  -2.794013 -0.281503  3.256589
      ESP Fit Center   34 is at  -3.214013 -0.394041  3.256589
      ESP Fit Center   35 is at  -3.521474 -0.701503  3.256589
      ESP Fit Center   36 is at  -3.634013 -1.121503  3.256589
      ESP Fit Center   37 is at  -3.521474 -1.541503  3.256589
      ESP Fit Center   38 is at  -3.214013 -1.848964  3.256589
      ESP Fit Center   39 is at  -2.794013 -1.961503  3.256589
      ESP Fit Center   40 is at  -2.374013 -1.848964  3.256589
      ESP Fit Center   41 is at  -2.066552 -1.541503  3.256589
      ESP Fit Center   42 is at  -1.606074 -1.121503  2.989605
      ESP Fit Center   43 is at  -1.686292 -0.692370  2.989605
      ESP Fit Center   44 is at  -1.916115 -0.321193  2.989605
      ESP Fit Center   45 is at  -2.264503 -0.058103  2.989605
      ESP Fit Center   46 is at  -2.684404  0.061369  2.989605
      ESP Fit Center   47 is at  -3.119108  0.021088  2.989605
      ESP Fit Center   48 is at  -3.509906 -0.173507  2.989605
      ESP Fit Center   49 is at  -3.804019 -0.496133  2.989605
      ESP Fit Center   50 is at  -3.961725 -0.903219  2.989605
      ESP Fit Center   51 is at  -3.961725 -1.339786  2.989605
      ESP Fit Center   52 is at  -3.804019 -1.746872  2.989605
      ESP Fit Center   53 is at  -3.509906 -2.069499  2.989605
      ESP Fit Center   54 is at  -3.119108 -2.264093  2.989605
      ESP Fit Center   55 is at  -2.684404 -2.304375  2.989605
      ESP Fit Center   56 is at  -2.264503 -2.184902  2.989605
      ESP Fit Center   57 is at  -1.916115 -1.921812  2.989605
      ESP Fit Center   58 is at  -1.686292 -1.550636  2.989605
      ESP Fit Center   59 is at  -1.339090 -1.121503  2.641666
      ESP Fit Center   60 is at  -2.262470  0.232847  2.641666
      ESP Fit Center   61 is at  -2.685286  0.329352  2.641666
      ESP Fit Center   62 is at  -3.117764  0.296942  2.641666
      ESP Fit Center   63 is at  -3.521474  0.138497  2.641666
      ESP Fit Center   64 is at  -4.232685 -1.338348  2.641666
      ESP Fit Center   65 is at  -4.104853 -1.752770  2.641666
      ESP Fit Center   66 is at  -3.860547 -2.111102  2.641666
      ESP Fit Center   67 is at  -3.521474 -2.381503  2.641666
      ESP Fit Center   68 is at  -3.117764 -2.539947  2.641666
      ESP Fit Center   69 is at  -2.685286 -2.572357  2.641666
      ESP Fit Center   70 is at  -2.262470 -2.475852  2.641666
      ESP Fit Center   71 is at  -1.886884 -2.259007  2.641666
      ESP Fit Center   72 is at  -1.591899 -1.941090  2.641666
      ESP Fit Center   73 is at  -1.403728 -1.550349  2.641666
      ESP Fit Center   74 is at  -3.941474 -2.268964  2.236482
      ESP Fit Center   75 is at  -3.605391 -2.526850  2.236482
      ESP Fit Center   76 is at  -3.214013 -2.688964  2.236482
      ESP Fit Center   77 is at  -2.794013 -2.744258  2.236482
      ESP Fit Center   78 is at  -2.374013 -2.688964  2.236482
      ESP Fit Center   79 is at  -1.982635 -2.526850  2.236482
      ESP Fit Center   80 is at  -1.646552 -2.268964  2.236482
      ESP Fit Center   81 is at  -1.388666 -1.932880  2.236482
      ESP Fit Center   82 is at  -1.226552 -1.541503  2.236482
      ESP Fit Center   83 is at  -3.108814 -2.771745  1.801666
      ESP Fit Center   84 is at  -2.688525 -2.798188  1.801666
      ESP Fit Center   85 is at  -2.274864 -2.719278  1.801666
      ESP Fit Center   86 is at  -1.893824 -2.539974  1.801666
      ESP Fit Center   87 is at  -1.569346 -2.271542  1.801666
      ESP Fit Center   88 is at  -1.321818 -1.930849  1.801666
      ESP Fit Center   89 is at  -1.166793 -1.539302  1.801666
      ESP Fit Center   90 is at  -1.982635 -2.526850  1.366850
      ESP Fit Center   91 is at  -1.646552 -2.268964  1.366850
      ESP Fit Center   92 is at  -1.388666 -1.932880  1.366850
      ESP Fit Center   93 is at  -3.513181  0.229429  2.566892
      ESP Fit Center   94 is at  -4.340731 -0.678351  2.566892
      ESP Fit Center   95 is at  -4.340731 -1.107111  2.566892
      ESP Fit Center   96 is at  -2.982572  0.577079  2.305730
      ESP Fit Center   97 is at  -4.678823 -0.892731  2.305730
      ESP Fit Center   98 is at  -4.618673 -1.311082  2.305730
      ESP Fit Center   99 is at  -4.443097 -1.695541  2.305730
      ESP Fit Center  100 is at  -4.166318 -2.014962  2.305730
      ESP Fit Center  101 is at  -2.574728  0.739888  1.987503
      ESP Fit Center  102 is at  -2.983432  0.840625  1.987503
      ESP Fit Center  103 is at  -4.889247 -1.310597  1.987503
      ESP Fit Center  104 is at  -4.739981 -1.704177  1.987503
      ESP Fit Center  105 is at  -4.500863 -2.050600  1.987503
      ESP Fit Center  106 is at  -4.185789 -2.329731  1.987503
      ESP Fit Center  107 is at  -3.813070 -2.525350  1.987503
      ESP Fit Center  108 is at  -2.674855  0.976698  1.624441
      ESP Fit Center  109 is at  -5.122673 -1.102498  1.624441
      ESP Fit Center  110 is at  -5.032485 -1.512223  1.624441
      ESP Fit Center  111 is at  -4.856328 -1.892981  1.624441
      ESP Fit Center  112 is at  -3.088862 -2.830032  1.624441
      ESP Fit Center  113 is at  -5.159091 -1.509314  1.230496
      ESP Fit Center  114 is at  -2.478572 -2.824171  1.230496
      ESP Fit Center  115 is at  -2.104419 -2.640640  1.230496
      ESP Fit Center  116 is at  -1.774869 -2.385550  1.230496
      ESP Fit Center  117 is at  -1.503414 -2.069343  1.230496
      ESP Fit Center  118 is at  -5.253548 -1.302420  0.820806
      ESP Fit Center  119 is at  -2.390264 -2.832878  0.820806
      ESP Fit Center  120 is at  -2.027201 -2.638817  0.820806
      ESP Fit Center  121 is at  -1.708975 -2.377655  0.820806
      ESP Fit Center  122 is at  -5.242981 -1.101102  0.411116
      ESP Fit Center  123 is at  -2.104419 -2.640640  0.411116
      ESP Fit Center  124 is at  -4.939985 -0.892731 -0.345892
      ESP Fit Center  125 is at  -4.618673 -0.474379 -0.664118
      ESP Fit Center  126 is at  -4.678823 -0.892731 -0.664118
      ESP Fit Center  127 is at  -4.185845 -0.278544 -0.925280
      ESP Fit Center  128 is at  -4.340731 -0.678351 -0.925280
      ESP Fit Center  129 is at  -3.725716  0.261951  2.549457
      ESP Fit Center  130 is at  -4.160532  0.261951  2.549457
      ESP Fit Center  131 is at  -4.377940 -0.114611  2.549457
      ESP Fit Center  132 is at  -3.523124  0.612851  2.381625
      ESP Fit Center  133 is at  -3.943124  0.725389  2.381625
      ESP Fit Center  134 is at  -4.363124  0.612851  2.381625
      ESP Fit Center  135 is at  -4.670585  0.305389  2.381625
      ESP Fit Center  136 is at  -4.783124 -0.114611  2.381625
      ESP Fit Center  137 is at  -4.670585 -0.534611  2.381625
      ESP Fit Center  138 is at  -3.413614  0.948789  2.114641
      ESP Fit Center  139 is at  -3.833515  1.068261  2.114641
      ESP Fit Center  140 is at  -4.268219  1.027980  2.114641
      ESP Fit Center  141 is at  -4.659017  0.833385  2.114641
      ESP Fit Center  142 is at  -4.953130  0.510759  2.114641
      ESP Fit Center  143 is at  -5.110836  0.103673  2.114641
      ESP Fit Center  144 is at  -5.110836 -0.332894  2.114641
      ESP Fit Center  145 is at  -4.953130 -0.739980  2.114641
      ESP Fit Center  146 is at  -3.035994  1.022894  1.766702
      ESP Fit Center  147 is at  -3.411581  1.239739  1.766702
      ESP Fit Center  148 is at  -3.834397  1.336244  1.766702
      ESP Fit Center  149 is at  -4.266875  1.303834  1.766702
      ESP Fit Center  150 is at  -4.670585  1.145389  1.766702
      ESP Fit Center  151 is at  -5.009658  0.874988  1.766702
      ESP Fit Center  152 is at  -5.253964  0.516657  1.766702
      ESP Fit Center  153 is at  -5.381796  0.102234  1.766702
      ESP Fit Center  154 is at  -5.381796 -0.331456  1.766702
      ESP Fit Center  155 is at  -5.253964 -0.745878  1.766702
      ESP Fit Center  156 is at  -3.131746  1.290737  1.361518
      ESP Fit Center  157 is at  -3.523124  1.452851  1.361518
      ESP Fit Center  158 is at  -3.943124  1.508145  1.361518
      ESP Fit Center  159 is at  -4.363124  1.452851  1.361518
      ESP Fit Center  160 is at  -4.754502  1.290737  1.361518
      ESP Fit Center  161 is at  -5.090585  1.032851  1.361518
      ESP Fit Center  162 is at  -5.348471  0.696767  1.361518
      ESP Fit Center  163 is at  -5.510585  0.305389  1.361518
      ESP Fit Center  164 is at  -5.565879 -0.114611  1.361518
      ESP Fit Center  165 is at  -5.510585 -0.534611  1.361518
      ESP Fit Center  166 is at  -5.348471 -0.925988  1.361518
      ESP Fit Center  167 is at  -3.042935  1.303860  0.926702
      ESP Fit Center  168 is at  -3.423975  1.483164  0.926702
      ESP Fit Center  169 is at  -3.837636  1.562074  0.926702
      ESP Fit Center  170 is at  -4.257925  1.535632  0.926702
      ESP Fit Center  171 is at  -4.658433  1.405499  0.926702
      ESP Fit Center  172 is at  -5.013996  1.179852  0.926702
      ESP Fit Center  173 is at  -5.302272  0.872869  0.926702
      ESP Fit Center  174 is at  -5.505148  0.503839  0.926702
      ESP Fit Center  175 is at  -5.609877  0.095949  0.926702
      ESP Fit Center  176 is at  -5.609877 -0.325171  0.926702
      ESP Fit Center  177 is at  -5.505148 -0.733060  0.926702
      ESP Fit Center  178 is at  -5.302272 -1.102090  0.926702
      ESP Fit Center  179 is at  -3.523124  1.452851  0.491886
      ESP Fit Center  180 is at  -3.943124  1.508145  0.491886
      ESP Fit Center  181 is at  -4.363124  1.452851  0.491886
      ESP Fit Center  182 is at  -4.754502  1.290737  0.491886
      ESP Fit Center  183 is at  -5.090585  1.032851  0.491886
      ESP Fit Center  184 is at  -5.348471  0.696767  0.491886
      ESP Fit Center  185 is at  -5.510585  0.305389  0.491886
      ESP Fit Center  186 is at  -5.565879 -0.114611  0.491886
      ESP Fit Center  187 is at  -5.510585 -0.534611  0.491886
      ESP Fit Center  188 is at  -5.348471 -0.925988  0.491886
      ESP Fit Center  189 is at  -3.411581  1.239739  0.086702
      ESP Fit Center  190 is at  -3.834397  1.336244  0.086702
      ESP Fit Center  191 is at  -4.266875  1.303834  0.086702
      ESP Fit Center  192 is at  -4.670585  1.145389  0.086702
      ESP Fit Center  193 is at  -5.009658  0.874988  0.086702
      ESP Fit Center  194 is at  -5.253964  0.516657  0.086702
      ESP Fit Center  195 is at  -5.381796  0.102234  0.086702
      ESP Fit Center  196 is at  -5.381796 -0.331456  0.086702
      ESP Fit Center  197 is at  -5.253964 -0.745878  0.086702
      ESP Fit Center  198 is at  -3.833515  1.068261 -0.261238
      ESP Fit Center  199 is at  -4.268219  1.027980 -0.261238
      ESP Fit Center  200 is at  -4.659017  0.833385 -0.261238
      ESP Fit Center  201 is at  -4.953130  0.510759 -0.261238
      ESP Fit Center  202 is at  -5.110836  0.103673 -0.261238
      ESP Fit Center  203 is at  -5.110836 -0.332894 -0.261238
      ESP Fit Center  204 is at  -3.943124  0.725389 -0.528221
      ESP Fit Center  205 is at  -4.363124  0.612851 -0.528221
      ESP Fit Center  206 is at  -4.670585  0.305389 -0.528221
      ESP Fit Center  207 is at  -4.783124 -0.114611 -0.528221
      ESP Fit Center  208 is at  -4.160532  0.261951 -0.696054
      ESP Fit Center  209 is at  -4.093562 -2.496217  1.862286
      ESP Fit Center  210 is at  -4.841274 -1.987039  1.595302
      ESP Fit Center  211 is at  -4.683568 -2.394125  1.595302
      ESP Fit Center  212 is at  -4.389455 -2.716752  1.595302
      ESP Fit Center  213 is at  -3.998657 -2.911346  1.595302
      ESP Fit Center  214 is at  -3.563953 -2.951628  1.595302
      ESP Fit Center  215 is at  -5.112234 -1.985601  1.247363
      ESP Fit Center  216 is at  -4.984402 -2.400023  1.247363
      ESP Fit Center  217 is at  -4.740096 -2.758354  1.247363
      ESP Fit Center  218 is at  -4.401023 -3.028756  1.247363
      ESP Fit Center  219 is at  -3.997313 -3.187200  1.247363
      ESP Fit Center  220 is at  -3.564836 -3.219610  1.247363
      ESP Fit Center  221 is at  -3.142019 -3.123105  1.247363
      ESP Fit Center  222 is at  -2.766433 -2.906260  1.247363
      ESP Fit Center  223 is at  -5.296317 -1.768756  0.842179
      ESP Fit Center  224 is at  -5.241023 -2.188756  0.842179
      ESP Fit Center  225 is at  -5.078909 -2.580133  0.842179
      ESP Fit Center  226 is at  -4.821023 -2.916217  0.842179
      ESP Fit Center  227 is at  -4.484940 -3.174103  0.842179
      ESP Fit Center  228 is at  -4.093562 -3.336217  0.842179
      ESP Fit Center  229 is at  -3.673562 -3.391511  0.842179
      ESP Fit Center  230 is at  -3.253562 -3.336217  0.842179
      ESP Fit Center  231 is at  -2.862184 -3.174103  0.842179
      ESP Fit Center  232 is at  -2.526101 -2.916217  0.842179
      ESP Fit Center  233 is at  -5.340315 -1.558196  0.407363
      ESP Fit Center  234 is at  -5.340315 -1.979316  0.407363
      ESP Fit Center  235 is at  -5.235587 -2.387205  0.407363
      ESP Fit Center  236 is at  -5.032711 -2.756235  0.407363
      ESP Fit Center  237 is at  -4.744434 -3.063218  0.407363
      ESP Fit Center  238 is at  -4.388871 -3.288865  0.407363
      ESP Fit Center  239 is at  -3.988363 -3.418998  0.407363
      ESP Fit Center  240 is at  -3.568074 -3.445441  0.407363
      ESP Fit Center  241 is at  -3.154413 -3.366531  0.407363
      ESP Fit Center  242 is at  -2.773373 -3.187227  0.407363
      ESP Fit Center  243 is at  -2.448895 -2.918795  0.407363
      ESP Fit Center  244 is at  -5.241023 -1.348756 -0.027453
      ESP Fit Center  245 is at  -5.296317 -1.768756 -0.027453
      ESP Fit Center  246 is at  -5.241023 -2.188756 -0.027453
      ESP Fit Center  247 is at  -5.078909 -2.580133 -0.027453
      ESP Fit Center  248 is at  -4.821023 -2.916217 -0.027453
      ESP Fit Center  249 is at  -4.484940 -3.174103 -0.027453
      ESP Fit Center  250 is at  -4.093562 -3.336217 -0.027453
      ESP Fit Center  251 is at  -3.673562 -3.391511 -0.027453
      ESP Fit Center  252 is at  -3.253562 -3.336217 -0.027453
      ESP Fit Center  253 is at  -2.862184 -3.174103 -0.027453
      ESP Fit Center  254 is at  -2.526101 -2.916217 -0.027453
      ESP Fit Center  255 is at  -2.268215 -2.580133 -0.027453
      ESP Fit Center  256 is at  -4.984402 -1.137488 -0.432637
      ESP Fit Center  257 is at  -5.112234 -1.551911 -0.432637
      ESP Fit Center  258 is at  -5.112234 -1.985601 -0.432637
      ESP Fit Center  259 is at  -4.984402 -2.400023 -0.432637
      ESP Fit Center  260 is at  -4.740096 -2.758354 -0.432637
      ESP Fit Center  261 is at  -4.401023 -3.028756 -0.432637
      ESP Fit Center  262 is at  -3.997313 -3.187200 -0.432637
      ESP Fit Center  263 is at  -3.564836 -3.219610 -0.432637
      ESP Fit Center  264 is at  -3.142019 -3.123105 -0.432637
      ESP Fit Center  265 is at  -2.766433 -2.906260 -0.432637
      ESP Fit Center  266 is at  -2.471449 -2.588343 -0.432637
      ESP Fit Center  267 is at  -4.683568 -1.143386 -0.780577
      ESP Fit Center  268 is at  -4.841274 -1.550472 -0.780577
      ESP Fit Center  269 is at  -4.841274 -1.987039 -0.780577
      ESP Fit Center  270 is at  -4.683568 -2.394125 -0.780577
      ESP Fit Center  271 is at  -4.389455 -2.716752 -0.780577
      ESP Fit Center  272 is at  -3.998657 -2.911346 -0.780577
      ESP Fit Center  273 is at  -3.563953 -2.951628 -0.780577
      ESP Fit Center  274 is at  -3.144052 -2.832155 -0.780577
      ESP Fit Center  275 is at  -2.795664 -2.569065 -0.780577
      ESP Fit Center  276 is at  -4.401023 -1.348756 -1.047560
      ESP Fit Center  277 is at  -4.513562 -1.768756 -1.047560
      ESP Fit Center  278 is at  -4.401023 -2.188756 -1.047560
      ESP Fit Center  279 is at  -4.093562 -2.496217 -1.047560
      ESP Fit Center  280 is at  -3.673562 -2.608756 -1.047560
      ESP Fit Center  281 is at  -3.253562 -2.496217 -1.047560
      ESP Fit Center  282 is at  -4.108378 -1.768756 -1.215393
      ESP Fit Center  283 is at  -3.890970 -2.145317 -1.215393
      ESP Fit Center  284 is at  -3.456154 -2.145317 -1.215393
      ESP Fit Center  285 is at  -1.143979 -1.853221  1.017058
      ESP Fit Center  286 is at  -2.853991  1.386132  0.653996
      ESP Fit Center  287 is at  -1.616825 -2.285648  0.653996
      ESP Fit Center  288 is at  -1.227088 -2.130363  0.653996
      ESP Fit Center  289 is at  -2.652125  1.577679  0.260051
      ESP Fit Center  290 is at  -3.042926  1.432942  0.260051
      ESP Fit Center  291 is at  -1.823981 -2.452118  0.260051
      ESP Fit Center  292 is at  -1.420542 -2.347660  0.260051
      ESP Fit Center  293 is at  -1.046389 -2.164129  0.260051
      ESP Fit Center  294 is at  -0.716839 -1.909039  0.260051
      ESP Fit Center  295 is at  -2.545559  1.643429 -0.149639
      ESP Fit Center  296 is at  -2.939504  1.523927 -0.149639
      ESP Fit Center  297 is at  -3.302566  1.329866 -0.149639
      ESP Fit Center  298 is at  -2.135869 -2.516220 -0.149639
      ESP Fit Center  299 is at  -1.726179 -2.475869 -0.149639
      ESP Fit Center  300 is at  -1.332234 -2.356367 -0.149639
      ESP Fit Center  301 is at  -0.969171 -2.162306 -0.149639
      ESP Fit Center  302 is at  -0.650945 -1.901144 -0.149639
      ESP Fit Center  303 is at  -2.240188  1.640786 -0.559329
      ESP Fit Center  304 is at  -2.652125  1.577679 -0.559329
      ESP Fit Center  305 is at  -3.042926  1.432942 -0.559329
      ESP Fit Center  306 is at  -3.396592  1.212501 -0.559329
      ESP Fit Center  307 is at  -3.698644  0.925379 -0.559329
      ESP Fit Center  308 is at  -2.240188 -2.473225 -0.559329
      ESP Fit Center  309 is at  -1.823981 -2.452118 -0.559329
      ESP Fit Center  310 is at  -1.420542 -2.347660 -0.559329
      ESP Fit Center  311 is at  -1.046389 -2.164129 -0.559329
      ESP Fit Center  312 is at  -0.716839 -1.909039 -0.559329
      ESP Fit Center  313 is at  -0.445384 -1.592832 -0.559329
      ESP Fit Center  314 is at  -2.449750  1.498369 -0.953274
      ESP Fit Center  315 is at  -2.853991  1.386132 -0.953274
      ESP Fit Center  316 is at  -3.224654  1.189619 -0.953274
      ESP Fit Center  317 is at  -3.544407  0.918018 -0.953274
      ESP Fit Center  318 is at  -0.879844 -1.894926 -0.953274
      ESP Fit Center  319 is at  -0.591331 -1.590347 -0.953274
      ESP Fit Center  320 is at  -2.586019  1.391813 -1.133976
      ESP Fit Center  321 is at  -2.992160  1.279048 -1.133976
      ESP Fit Center  322 is at  -3.364564  1.081612 -1.133976
      ESP Fit Center  323 is at  -3.685819  0.808735 -1.133976
      ESP Fit Center  324 is at  -3.940903  0.473178 -1.133976
      ESP Fit Center  325 is at  -4.117888  0.090631 -1.133976
      ESP Fit Center  326 is at  -4.208499 -0.321019 -1.133976
      ESP Fit Center  327 is at  -4.208499 -0.742524 -1.133976
      ESP Fit Center  328 is at  -4.117888 -1.154174 -1.133976
      ESP Fit Center  329 is at  -2.992160 -2.342592 -1.133976
      ESP Fit Center  330 is at  -2.586019 -2.455356 -1.133976
      ESP Fit Center  331 is at  -2.165132 -2.478176 -1.133976
      ESP Fit Center  332 is at  -1.749180 -2.409984 -1.133976
      ESP Fit Center  333 is at  -1.357612 -2.253969 -1.133976
      ESP Fit Center  334 is at  -1.008737 -2.017426 -1.133976
      ESP Fit Center  335 is at  -0.718868 -1.711415 -1.133976
      ESP Fit Center  336 is at  -0.501560 -1.350246 -1.133976
      ESP Fit Center  337 is at  -1.749180  1.346440 -1.543728
      ESP Fit Center  338 is at  -2.165132  1.414632 -1.543728
      ESP Fit Center  339 is at  -2.586019  1.391813 -1.543728
      ESP Fit Center  340 is at  -2.992160  1.279048 -1.543728
      ESP Fit Center  341 is at  -3.364564  1.081612 -1.543728
      ESP Fit Center  342 is at  -3.685819  0.808735 -1.543728
      ESP Fit Center  343 is at  -3.940903  0.473178 -1.543728
      ESP Fit Center  344 is at  -4.117888  0.090631 -1.543728
      ESP Fit Center  345 is at  -4.208499 -0.321019 -1.543728
      ESP Fit Center  346 is at  -4.208499 -0.742524 -1.543728
      ESP Fit Center  347 is at  -4.117888 -1.154174 -1.543728
      ESP Fit Center  348 is at  -3.940903 -1.536722 -1.543728
      ESP Fit Center  349 is at  -3.685819 -1.872279 -1.543728
      ESP Fit Center  350 is at  -3.364564 -2.145155 -1.543728
      ESP Fit Center  351 is at  -2.992160 -2.342592 -1.543728
      ESP Fit Center  352 is at  -2.586019 -2.455356 -1.543728
      ESP Fit Center  353 is at  -2.165132 -2.478176 -1.543728
      ESP Fit Center  354 is at  -1.749180 -2.409984 -1.543728
      ESP Fit Center  355 is at  -1.357612 -2.253969 -1.543728
      ESP Fit Center  356 is at  -1.008737 -2.017426 -1.543728
      ESP Fit Center  357 is at  -0.718868 -1.711415 -1.543728
      ESP Fit Center  358 is at  -0.501560 -1.350246 -1.543728
      ESP Fit Center  359 is at  -1.855868  1.285563 -1.944525
      ESP Fit Center  360 is at  -2.270663  1.332299 -1.944525
      ESP Fit Center  361 is at  -2.685458  1.285563 -1.944525
      ESP Fit Center  362 is at  -3.079453  1.147698 -1.944525
      ESP Fit Center  363 is at  -3.432892  0.925617 -1.944525
      ESP Fit Center  364 is at  -3.728052  0.630457 -1.944525
      ESP Fit Center  365 is at  -3.950133  0.277018 -1.944525
      ESP Fit Center  366 is at  -4.087998 -0.116977 -1.944525
      ESP Fit Center  367 is at  -4.134734 -0.531772 -1.944525
      ESP Fit Center  368 is at  -4.087998 -0.946567 -1.944525
      ESP Fit Center  369 is at  -3.950133 -1.340562 -1.944525
      ESP Fit Center  370 is at  -3.728052 -1.694001 -1.944525
      ESP Fit Center  371 is at  -3.432892 -1.989161 -1.944525
      ESP Fit Center  372 is at  -3.079453 -2.211242 -1.944525
      ESP Fit Center  373 is at  -2.685458 -2.349106 -1.944525
      ESP Fit Center  374 is at  -2.270663 -2.395843 -1.944525
      ESP Fit Center  375 is at  -1.855868 -2.349106 -1.944525
      ESP Fit Center  376 is at  -1.461873 -2.211242 -1.944525
      ESP Fit Center  377 is at  -1.108434 -1.989161 -1.944525
      ESP Fit Center  378 is at  -0.813274 -1.694001 -1.944525
      ESP Fit Center  379 is at  -0.591193 -1.340562 -1.944525
      ESP Fit Center  380 is at  -1.746134  1.082561 -2.318852
      ESP Fit Center  381 is at  -2.164082  1.162289 -2.318852
      ESP Fit Center  382 is at  -2.588726  1.135572 -2.318852
      ESP Fit Center  383 is at  -2.993385  1.004090 -2.318852
      ESP Fit Center  384 is at  -3.352633  0.776105 -2.318852
      ESP Fit Center  385 is at  -3.643896  0.465941 -2.318852
      ESP Fit Center  386 is at  -3.848875  0.093086 -2.318852
      ESP Fit Center  387 is at  -3.954688 -0.319030 -2.318852
      ESP Fit Center  388 is at  -3.954688 -0.744514 -2.318852
      ESP Fit Center  389 is at  -3.848875 -1.156630 -2.318852
      ESP Fit Center  390 is at  -3.643896 -1.529484 -2.318852
      ESP Fit Center  391 is at  -3.352633 -1.839649 -2.318852
      ESP Fit Center  392 is at  -2.993385 -2.067634 -2.318852
      ESP Fit Center  393 is at  -2.588726 -2.199116 -2.318852
      ESP Fit Center  394 is at  -2.164082 -2.225832 -2.318852
      ESP Fit Center  395 is at  -1.746134 -2.146104 -2.318852
      ESP Fit Center  396 is at  -1.361145 -1.964942 -2.318852
      ESP Fit Center  397 is at  -1.033304 -1.693729 -2.318852
      ESP Fit Center  398 is at  -0.783211 -1.349505 -2.318852
      ESP Fit Center  399 is at  -0.626580 -0.953900 -2.318852
      ESP Fit Center  400 is at  -0.814099 -0.531772 -2.650348
      ESP Fit Center  401 is at  -1.316816  0.569026 -2.650348
      ESP Fit Center  402 is at  -1.665584  0.793165 -2.650348
      ESP Fit Center  403 is at  -2.063372  0.909966 -2.650348
      ESP Fit Center  404 is at  -2.477954  0.909966 -2.650348
      ESP Fit Center  405 is at  -2.875741  0.793165 -2.650348
      ESP Fit Center  406 is at  -3.224509  0.569026 -2.650348
      ESP Fit Center  407 is at  -3.496002  0.255706 -2.650348
      ESP Fit Center  408 is at  -3.668226 -0.121410 -2.650348
      ESP Fit Center  409 is at  -3.727227 -0.531772 -2.650348
      ESP Fit Center  410 is at  -3.668226 -0.942133 -2.650348
      ESP Fit Center  411 is at  -3.496002 -1.319250 -2.650348
      ESP Fit Center  412 is at  -3.224509 -1.632569 -2.650348
      ESP Fit Center  413 is at  -2.875741 -1.856709 -2.650348
      ESP Fit Center  414 is at  -2.477954 -1.973510 -2.650348
      ESP Fit Center  415 is at  -2.063372 -1.973510 -2.650348
      ESP Fit Center  416 is at  -1.665584 -1.856709 -2.650348
      ESP Fit Center  417 is at  -1.316816 -1.632569 -2.650348
      ESP Fit Center  418 is at  -1.045323 -1.319250 -2.650348
      ESP Fit Center  419 is at  -0.873100 -0.942133 -2.650348
      ESP Fit Center  420 is at  -1.118604 -0.531772 -2.924525
      ESP Fit Center  421 is at  -1.196400 -0.115600 -2.924525
      ESP Fit Center  422 is at  -1.419281  0.244365 -2.924525
      ESP Fit Center  423 is at  -1.757146  0.499509 -2.924525
      ESP Fit Center  424 is at  -2.164364  0.615373 -2.924525
      ESP Fit Center  425 is at  -2.585939  0.576308 -2.924525
      ESP Fit Center  426 is at  -2.964934  0.387591 -2.924525
      ESP Fit Center  427 is at  -3.250163  0.074709 -2.924525
      ESP Fit Center  428 is at  -3.403106 -0.320081 -2.924525
      ESP Fit Center  429 is at  -3.403106 -0.743462 -2.924525
      ESP Fit Center  430 is at  -3.250163 -1.138253 -2.924525
      ESP Fit Center  431 is at  -2.964934 -1.451135 -2.924525
      ESP Fit Center  432 is at  -2.585939 -1.639852 -2.924525
      ESP Fit Center  433 is at  -2.164364 -1.678916 -2.924525
      ESP Fit Center  434 is at  -1.757146 -1.563053 -2.924525
      ESP Fit Center  435 is at  -1.419281 -1.307909 -2.924525
      ESP Fit Center  436 is at  -1.196400 -0.947944 -2.924525
      ESP Fit Center  437 is at  -1.473459 -0.531772 -3.129401
      ESP Fit Center  438 is at  -1.580264 -0.133170 -3.129401
      ESP Fit Center  439 is at  -1.872061  0.158627 -3.129401
      ESP Fit Center  440 is at  -2.270663  0.265432 -3.129401
      ESP Fit Center  441 is at  -2.669265  0.158627 -3.129401
      ESP Fit Center  442 is at  -2.961062 -0.133170 -3.129401
      ESP Fit Center  443 is at  -3.067867 -0.531772 -3.129401
      ESP Fit Center  444 is at  -2.961062 -0.930374 -3.129401
      ESP Fit Center  445 is at  -2.669265 -1.222171 -3.129401
      ESP Fit Center  446 is at  -2.270663 -1.328976 -3.129401
      ESP Fit Center  447 is at  -1.872061 -1.222171 -3.129401
      ESP Fit Center  448 is at  -1.580264 -0.930374 -3.129401
      ESP Fit Center  449 is at  -1.863156 -0.531772 -3.256021
      ESP Fit Center  450 is at  -2.066909 -0.178860 -3.256021
      ESP Fit Center  451 is at  -2.474416 -0.178860 -3.256021
      ESP Fit Center  452 is at  -2.678170 -0.531772 -3.256021
      ESP Fit Center  453 is at  -2.474416 -0.884683 -3.256021
      ESP Fit Center  454 is at  -2.066909 -0.884683 -3.256021
      ESP Fit Center  455 is at  -2.270663 -0.531772 -3.298852
      ESP Fit Center  456 is at  -1.265679  1.903310  1.580995
      ESP Fit Center  457 is at  -1.674383  1.802574  1.580995
      ESP Fit Center  458 is at  -2.047102  1.606956  1.580995
      ESP Fit Center  459 is at  -2.362176  1.327824  1.580995
      ESP Fit Center  460 is at  -2.601294  0.981402  1.580995
      ESP Fit Center  461 is at  -0.844744 -1.563400  1.580995
      ESP Fit Center  462 is at  -0.436041 -1.462664  1.580995
      ESP Fit Center  463 is at  -0.063322 -1.267046  1.580995
      ESP Fit Center  464 is at  -1.369093  2.084544  1.217933
      ESP Fit Center  465 is at  -1.773334  1.972307  1.217933
      ESP Fit Center  466 is at  -2.143997  1.775793  1.217933
      ESP Fit Center  467 is at  -2.463750  1.504193  1.217933
      ESP Fit Center  468 is at  -2.717641  1.170205  1.217933
      ESP Fit Center  469 is at  -0.950174 -1.767347  1.217933
      ESP Fit Center  470 is at  -0.536168 -1.699474  1.217933
      ESP Fit Center  471 is at  -0.146431 -1.544188  1.217933
      ESP Fit Center  472 is at  -1.962269  2.019117  0.823988
      ESP Fit Center  473 is at  -2.315935  1.798676  0.823988
      ESP Fit Center  474 is at  -2.617987  1.511554  0.823988
      ESP Fit Center  475 is at  -0.743324 -1.865943  0.823988
      ESP Fit Center  476 is at  -0.339885 -1.761485  0.823988
      ESP Fit Center  477 is at   0.034268 -1.577954  0.823988
      ESP Fit Center  478 is at  -2.221909  1.916041  0.414298
      ESP Fit Center  479 is at  -2.540136  1.654879  0.414298
      ESP Fit Center  480 is at  -0.645522 -1.889694  0.414298
      ESP Fit Center  481 is at  -0.251577 -1.770192  0.414298
      ESP Fit Center  482 is at   0.111486 -1.576131  0.414298
      ESP Fit Center  483 is at  -2.315935  1.798676  0.004608
      ESP Fit Center  484 is at  -0.339885 -1.761485  0.004608
      ESP Fit Center  485 is at   0.034268 -1.577954  0.004608
      ESP Fit Center  486 is at  -0.146431 -1.544188 -0.389337
      ESP Fit Center  487 is at  -0.974441  0.219939  3.083910
      ESP Fit Center  488 is at  -0.539625  0.219939  3.026665
      ESP Fit Center  489 is at  -0.757033  0.596501  3.026665
      ESP Fit Center  490 is at  -1.191849  0.596501  3.026665
      ESP Fit Center  491 is at  -1.409257  0.219939  3.026665
      ESP Fit Center  492 is at  -1.191849 -0.156623  3.026665
      ESP Fit Center  493 is at  -0.757033 -0.156623  3.026665
      ESP Fit Center  494 is at  -0.134441  0.219939  2.858833
      ESP Fit Center  495 is at  -0.246980  0.639939  2.858833
      ESP Fit Center  496 is at  -0.554441  0.947400  2.858833
      ESP Fit Center  497 is at  -0.974441  1.059939  2.858833
      ESP Fit Center  498 is at  -1.394441  0.947400  2.858833
      ESP Fit Center  499 is at  -1.701902  0.639939  2.858833
      ESP Fit Center  500 is at  -1.814441  0.219939  2.858833
      ESP Fit Center  501 is at  -1.701902 -0.200061  2.858833
      ESP Fit Center  502 is at  -1.394441 -0.507522  2.858833
      ESP Fit Center  503 is at  -0.974441 -0.620061  2.858833
      ESP Fit Center  504 is at  -0.554441 -0.507522  2.858833
      ESP Fit Center  505 is at  -0.246980 -0.200061  2.858833
      ESP Fit Center  506 is at  -0.096543  1.020249  2.591849
      ESP Fit Center  507 is at  -0.444931  1.283339  2.591849
      ESP Fit Center  508 is at  -0.864832  1.402811  2.591849
      ESP Fit Center  509 is at  -1.299536  1.362530  2.591849
      ESP Fit Center  510 is at  -1.690334  1.167935  2.591849
      ESP Fit Center  511 is at  -1.984447  0.845309  2.591849
      ESP Fit Center  512 is at  -2.142153  0.438222  2.591849
      ESP Fit Center  513 is at  -1.299536 -0.922651  2.591849
      ESP Fit Center  514 is at  -0.864832 -0.962933  2.591849
      ESP Fit Center  515 is at  -0.444931 -0.843461  2.591849
      ESP Fit Center  516 is at  -0.096543 -0.580370  2.591849
      ESP Fit Center  517 is at   0.133280 -0.209194  2.591849
      ESP Fit Center  518 is at  -0.067311  1.357443  2.243910
      ESP Fit Center  519 is at  -0.442898  1.574288  2.243910
      ESP Fit Center  520 is at  -0.865714  1.670794  2.243910
      ESP Fit Center  521 is at  -1.298192  1.638384  2.243910
      ESP Fit Center  522 is at  -1.701902  1.479939  2.243910
      ESP Fit Center  523 is at  -2.040975  1.209538  2.243910
      ESP Fit Center  524 is at  -2.285281  0.851206  2.243910
      ESP Fit Center  525 is at  -0.865714 -1.230915  2.243910
      ESP Fit Center  526 is at  -0.442898 -1.134410  2.243910
      ESP Fit Center  527 is at  -0.067311 -0.917565  2.243910
      ESP Fit Center  528 is at  -0.974441  1.842694  1.838726
      ESP Fit Center  529 is at  -1.394441  1.787400  1.838726
      ESP Fit Center  530 is at  -1.785819  1.625286  1.838726
      ESP Fit Center  531 is at  -2.121902  1.367400  1.838726
      ESP Fit Center  532 is at  -2.379788  1.031317  1.838726
      ESP Fit Center  533 is at  -0.974441 -1.402816  1.838726
      ESP Fit Center  534 is at  -0.554441 -1.347522  1.838726
      ESP Fit Center  535 is at  -0.163063 -1.185408  1.838726
      ESP Fit Center  536 is at   0.173020 -0.927522  1.838726
      ESP Fit Center  537 is at  -0.064352 -1.338601 -0.767939
      ESP Fit Center  538 is at   1.464742  1.136757 -1.843173
      ESP Fit Center  539 is at  -0.420042 -1.266904 -1.374538
      ESP Fit Center  540 is at   0.000246 -1.293346 -1.374538
      ESP Fit Center  541 is at  -0.105242 -1.239416 -1.809354
      ESP Fit Center  542 is at   1.285043  0.812185 -2.214538
      ESP Fit Center  543 is at   1.096872  1.202926 -2.214538
      ESP Fit Center  544 is at   0.801888  1.520843 -2.214538
      ESP Fit Center  545 is at  -0.832703  1.643339 -2.214538
      ESP Fit Center  546 is at  -1.171776  1.372938 -2.214538
      ESP Fit Center  547 is at  -1.416082  1.014606 -2.214538
      ESP Fit Center  548 is at  -0.428993 -1.035106 -2.214538
      ESP Fit Center  549 is at   0.003485 -1.067515 -2.214538
      ESP Fit Center  550 is at   1.082698  0.383339 -2.562478
      ESP Fit Center  551 is at   1.002479  0.812472 -2.562478
      ESP Fit Center  552 is at   0.772656  1.183649 -2.562478
      ESP Fit Center  553 is at   0.424268  1.446739 -2.562478
      ESP Fit Center  554 is at   0.004367  1.566211 -2.562478
      ESP Fit Center  555 is at  -0.430337  1.525930 -2.562478
      ESP Fit Center  556 is at  -0.821135  1.331335 -2.562478
      ESP Fit Center  557 is at  -1.115248  1.008709 -2.562478
      ESP Fit Center  558 is at  -0.430337 -0.759252 -2.562478
      ESP Fit Center  559 is at   0.004367 -0.799533 -2.562478
      ESP Fit Center  560 is at   0.424268 -0.680061 -2.562478
      ESP Fit Center  561 is at   0.734758  0.383339 -2.829461
      ESP Fit Center  562 is at   0.622219  0.803339 -2.829461
      ESP Fit Center  563 is at   0.314758  1.110800 -2.829461
      ESP Fit Center  564 is at  -0.105242  1.223339 -2.829461
      ESP Fit Center  565 is at  -0.525242  1.110800 -2.829461
      ESP Fit Center  566 is at  -0.832703  0.803339 -2.829461
      ESP Fit Center  567 is at  -0.945242  0.383339 -2.829461
      ESP Fit Center  568 is at  -0.832703 -0.036661 -2.829461
      ESP Fit Center  569 is at  -0.525242 -0.344122 -2.829461
      ESP Fit Center  570 is at  -0.105242 -0.456661 -2.829461
      ESP Fit Center  571 is at   0.314758 -0.344122 -2.829461
      ESP Fit Center  572 is at   0.622219 -0.036661 -2.829461
      ESP Fit Center  573 is at   0.329574  0.383339 -2.997294
      ESP Fit Center  574 is at   0.112166  0.759901 -2.997294
      ESP Fit Center  575 is at  -0.322650  0.759901 -2.997294
      ESP Fit Center  576 is at  -0.540058  0.383339 -2.997294
      ESP Fit Center  577 is at  -0.322650  0.006777 -2.997294
      ESP Fit Center  578 is at   0.112166  0.006777 -2.997294
      ESP Fit Center  579 is at  -0.105242  0.383339 -3.054538
      ESP Fit Center  580 is at  -1.420619  2.245626  1.166237
      ESP Fit Center  581 is at  -1.481777  3.057073  0.848010
      ESP Fit Center  582 is at  -1.631043  2.663492  0.848010
      ESP Fit Center  583 is at  -1.681781  2.245626  0.848010
      ESP Fit Center  584 is at   2.004452  2.245626  0.484948
      ESP Fit Center  585 is at   1.959093  2.662700  0.484948
      ESP Fit Center  586 is at   1.825135  3.060273  0.484948
      ESP Fit Center  587 is at  -0.653817  4.047977  0.484948
      ESP Fit Center  588 is at  -1.024480  3.851464  0.484948
      ESP Fit Center  589 is at   1.153786  3.993535  0.091003
      ESP Fit Center  590 is at   0.779632  4.177066  0.091003
      ESP Fit Center  591 is at   0.376193  4.281524  0.091003
      ESP Fit Center  592 is at  -0.040014  4.302632  0.091003
      ESP Fit Center  593 is at  -0.451951  4.239525  0.091003
      ESP Fit Center  594 is at   0.473995  4.305275 -0.318687
      ESP Fit Center  595 is at   0.064305  4.345626 -0.318687
      ESP Fit Center  596 is at  -0.345384  4.305275 -0.318687
      ESP Fit Center  597 is at   0.376193  4.281524 -0.728377
      ESP Fit Center  598 is at  -0.040014  4.302632 -0.728377
      ESP Fit Center  599 is at   0.169343  4.182928 -1.122322
      ESP Fit Center  600 is at  -0.249576  4.160215 -1.122322
      ESP Fit Center  601 is at  -0.146162  3.978981 -1.485385
      ESP Fit Center  602 is at  -0.147021  3.715436 -1.803611
      ESP Fit Center  603 is at  -0.631663  1.843808 -2.258834
      ESP Fit Center  604 is at  -0.140540  2.600428 -2.378336
      ESP Fit Center  605 is at  -0.345384  2.245626 -2.378336
      ESP Fit Center  606 is at  -0.140540  1.890824 -2.378336
      ESP Fit Center  607 is at   0.269150  1.890824 -2.378336
      ESP Fit Center  608 is at   0.064305  2.245626 -2.418687
      ESP Fit Center  609 is at   2.075569  2.632515  0.276104
      ESP Fit Center  610 is at   1.995350  3.061648  0.276104
      ESP Fit Center  611 is at   1.765527  3.432825  0.276104
      ESP Fit Center  612 is at   2.342552  2.632515 -0.071835
      ESP Fit Center  613 is at   2.277914  3.061361 -0.071835
      ESP Fit Center  614 is at   2.089743  3.452102 -0.071835
      ESP Fit Center  615 is at   1.794759  3.770019 -0.071835
      ESP Fit Center  616 is at   1.419172  3.986864 -0.071835
      ESP Fit Center  617 is at   2.277914  2.203669 -0.071835
      ESP Fit Center  618 is at   2.510385  2.632515 -0.477019
      ESP Fit Center  619 is at   2.455091  3.052515 -0.477019
      ESP Fit Center  620 is at   2.292977  3.443893 -0.477019
      ESP Fit Center  621 is at   2.035091  3.779976 -0.477019
      ESP Fit Center  622 is at   1.699007  4.037862 -0.477019
      ESP Fit Center  623 is at   1.307629  4.199976 -0.477019
      ESP Fit Center  624 is at   0.887629  4.255270 -0.477019
      ESP Fit Center  625 is at   2.455091  2.212515 -0.477019
      ESP Fit Center  626 is at   2.567629  2.632515 -0.911835
      ESP Fit Center  627 is at   2.514849  3.050314 -0.911835
      ESP Fit Center  628 is at   2.359825  3.441861 -0.911835
      ESP Fit Center  629 is at   2.112297  3.782554 -0.911835
[...]
 5692 Fit       0.002111
 5693 Fit      -0.008886
 5694 Fit      -0.009129
 5695 Fit      -0.008624
 5696 Fit      -0.004540
 5697 Fit      -0.004441
 5698 Fit      -0.001303
 5699 Fit      -0.000687
 5700 Fit      -0.024849
 5701 Fit      -0.026312
 5702 Fit      -0.025937
 5703 Fit      -0.024159
 5704 Fit      -0.022648
 5705 Fit      -0.023383
 5706 Fit      -0.025215
 5707 Fit      -0.027154
 5708 Fit      -0.027257
 5709 Fit      -0.026649
 5710 Fit      -0.025245
 5711 Fit      -0.023148
 5712 Fit      -0.020883
 5713 Fit      -0.019509
 5714 Fit      -0.019862
 5715 Fit      -0.021542
 5716 Fit      -0.023537
 5717 Fit      -0.025236
 5718 Fit      -0.026456
 5719 Fit      -0.027420
 5720 Fit      -0.027690
 5721 Fit      -0.027576
 5722 Fit      -0.026989
 5723 Fit      -0.025848
 5724 Fit      -0.024106
 5725 Fit      -0.021794
 5726 Fit      -0.019107
 5727 Fit      -0.016579
 5728 Fit      -0.015103
 5729 Fit      -0.015345
 5730 Fit      -0.017046
 5731 Fit      -0.019342
 5732 Fit      -0.021547
 5733 Fit      -0.023393
 5734 Fit      -0.024860
 5735 Fit      -0.025997
 5736 Fit      -0.026845
 5737 Fit      -0.027104
 5738 Fit      -0.027489
 5739 Fit      -0.027640
 5740 Fit      -0.027485
 5741 Fit      -0.026957
 5742 Fit      -0.025993
 5743 Fit      -0.024541
 5744 Fit      -0.022565
 5745 Fit      -0.020054
 5746 Fit      -0.017039
 5747 Fit      -0.013713
 5748 Fit      -0.010667
 5749 Fit      -0.008887
 5750 Fit      -0.009117
 5751 Fit      -0.011127
 5752 Fit      -0.013977
 5753 Fit      -0.016821
 5754 Fit      -0.019256
 5755 Fit      -0.021212
 5756 Fit      -0.022765
 5757 Fit      -0.024014
 5758 Fit      -0.025033
 5759 Fit      -0.025868
 5760 Fit      -0.026554
 5761 Fit      -0.026144
 5762 Fit      -0.026673
 5763 Fit      -0.027038
 5764 Fit      -0.027159
 5765 Fit      -0.026973
 5766 Fit      -0.026431
 5767 Fit      -0.025482
 5768 Fit      -0.024074
 5769 Fit      -0.022172
 5770 Fit      -0.019757
 5771 Fit      -0.016795
 5772 Fit      -0.013197
 5773 Fit      -0.008945
 5774 Fit      -0.009292
 5775 Fit      -0.012986
 5776 Fit      -0.015947
 5777 Fit      -0.018218
 5778 Fit      -0.019951
 5779 Fit      -0.021310
 5780 Fit      -0.022425
 5781 Fit      -0.023371
 5782 Fit      -0.024179
 5783 Fit      -0.024884
 5784 Fit      -0.025533
 5785 Fit      -0.024415
 5786 Fit      -0.025171
 5787 Fit      -0.025797
 5788 Fit      -0.026188
 5789 Fit      -0.026277
 5790 Fit      -0.026024
 5791 Fit      -0.025389
 5792 Fit      -0.024322
 5793 Fit      -0.022764
 5794 Fit      -0.020683
 5795 Fit      -0.018098
 5796 Fit      -0.015027
 5797 Fit      -0.011337
 5798 Fit      -0.006668
 5799 Fit      -0.007092
 5800 Fit      -0.011169
 5801 Fit      -0.014138
 5802 Fit      -0.016275
 5803 Fit      -0.017830
 5804 Fit      -0.019017
 5805 Fit      -0.020006
 5806 Fit      -0.020890
 5807 Fit      -0.021673
 5808 Fit      -0.022349
 5809 Fit      -0.022978
 5810 Fit      -0.023658
 5811 Fit      -0.021716
 5812 Fit      -0.022828
 5813 Fit      -0.023824
 5814 Fit      -0.024556
 5815 Fit      -0.024956
 5816 Fit      -0.024998
 5817 Fit      -0.024667
 5818 Fit      -0.023925
 5819 Fit      -0.022712
 5820 Fit      -0.020946
 5821 Fit      -0.005576
 5822 Fit      -0.009465
 5823 Fit      -0.012128
 5824 Fit      -0.013938
 5825 Fit      -0.015161
 5826 Fit      -0.016034
 5827 Fit      -0.016781
 5828 Fit      -0.021055
 5829 Fit      -0.022256
 5830 Fit      -0.023019
 5831 Fit      -0.023351
 5832 Fit      -0.023268
 5833 Fit      -0.022766
 5834 Fit      -0.021793
 5835 Fit      -0.020241
 5836 Fit      -0.006806
 5837 Fit      -0.009281
 5838 Fit      -0.010836
 5839 Fit      -0.011710
 5840 Fit      -0.019417
 5841 Fit      -0.020603
 5842 Fit      -0.021194
 5843 Fit      -0.021270
 5844 Fit      -0.020865
 5845 Fit      -0.019943
 5846 Fit      -0.005224
 5847 Fit      -0.006962
 5848 Fit      -0.007792
 5849 Fit      -0.017666
 5850 Fit      -0.018543
 5851 Fit      -0.018788
 5852 Fit      -0.018500
 5853 Fit      -0.017689
 5854 Fit      -0.014434
 5855 Fit      -0.015502
 5856 Fit      -0.015812
 5857 Fit      -0.015539
 5858 Fit      -0.014760
 5859 Fit      -0.011122
 5860 Fit      -0.012154
 5861 Fit      -0.012334
 5862 Fit      -0.011917
 5863 Fit       0.002167
 5864 Fit       0.002767
 5865 Fit       0.002928
 5866 Fit       0.003125
 5867 Fit       0.003799
 5868 Fit       0.003473
 5869 Fit       0.004218
 5870 Fit       0.005327
 5871 Fit      -0.001117
 5872 Fit       0.002722
 5873 Fit       0.003771
 5874 Fit       0.004924
 5875 Fit       0.006219
 5876 Fit       0.001381
 5877 Fit       0.000969
 5878 Fit       0.001594
 5879 Fit       0.002327
 5880 Fit       0.004256
 5881 Fit       0.005899
 5882 Fit       0.007415
 5883 Fit       0.008884
 5884 Fit       0.002688
 5885 Fit       0.002568
 5886 Fit       0.003426
 5887 Fit       0.002542
 5888 Fit       0.005286
 5889 Fit       0.007361
 5890 Fit       0.009061
 5891 Fit       0.010546
 5892 Fit       0.004475
 5893 Fit       0.003908
 5894 Fit       0.004166
 5895 Fit       0.005454
 5896 Fit       0.004903
 5897 Fit       0.007926
 5898 Fit       0.010124
 5899 Fit       0.011834
 5900 Fit       0.013243
 5901 Fit       0.006583
 5902 Fit       0.005595
 5903 Fit       0.005371
 5904 Fit       0.006061
 5905 Fit       0.014604
 5906 Fit       0.015923
 5907 Fit       0.007817
 5908 Fit       0.007090
 5909 Fit       0.007195
 5910 Fit       0.008212
 5911 Fit       0.019693
 5912 Fit       0.010496
 5913 Fit       0.009340
 5914 Fit       0.009009
 5915 Fit       0.009559
 5916 Fit       0.010952
 5917 Fit       0.012978
 5918 Fit       0.013678
 5919 Fit       0.012126
 5920 Fit       0.011371
 5921 Fit       0.011484
 5922 Fit       0.012433
 5923 Fit       0.014037
 5924 Fit       0.015980
 5925 Fit       0.016991
 5926 Fit       0.015111
 5927 Fit       0.014083
 5928 Fit       0.014055
 5929 Fit       0.014986
 5930 Fit       0.016620
 5931 Fit       0.020654
 5932 Fit       0.018569
 5933 Fit       0.017187
 5934 Fit       0.016855
 5935 Fit       0.004995
 5936 Fit       0.008909
 5937 Fit       0.011830
 5938 Fit       0.002661
 5939 Fit       0.007640
 5940 Fit       0.011343
 5941 Fit       0.014174
 5942 Fit       0.016463
 5943 Fit       0.018439
 5944 Fit       0.001805
 5945 Fit       0.006631
 5946 Fit       0.010670
 5947 Fit       0.013861
 5948 Fit       0.016397
 5949 Fit       0.018486
 5950 Fit       0.020297
 5951 Fit       0.021962
 5952 Fit       0.004472
 5953 Fit       0.007784
 5954 Fit       0.011360
 5955 Fit       0.014508
 5956 Fit       0.017097
 5957 Fit       0.019216
 5958 Fit       0.020990
 5959 Fit       0.022514
 5960 Fit       0.023823
 5961 Fit       0.017686
 5962 Fit       0.018334
 5963 Fit       0.009141
 5964 Fit       0.010209
 5965 Fit       0.012589
 5966 Fit       0.015261
 5967 Fit       0.017688
 5968 Fit       0.019724
 5969 Fit       0.021376
 5970 Fit       0.022667
 5971 Fit       0.023539
 5972 Fit       0.023810
 5973 Fit       0.023251
 5974 Fit       0.021695
 5975 Fit       0.020397
 5976 Fit       0.019293
 5977 Fit       0.018744
 5978 Fit       0.018699
 5979 Fit       0.018726
 5980 Fit       0.018262
 5981 Fit       0.016936
 5982 Fit       0.015028
 5983 Fit       0.013687
 5984 Fit       0.013901
 5985 Fit       0.015472
 5986 Fit       0.017569
 5987 Fit       0.019566
 5988 Fit       0.021192
 5989 Fit       0.022332
 5990 Fit       0.022863
 5991 Fit       0.022641
 5992 Fit       0.021456
 5993 Fit       0.020473
 5994 Fit       0.019716
 5995 Fit       0.019281
 5996 Fit       0.018648
 5997 Fit       0.017526
 5998 Fit       0.016692
 5999 Fit       0.017191
 6000 Fit       0.018779
 6001 Fit       0.020500
 6002 Fit       0.021690
 6003 Fit       0.022018
 6004 Fit       0.020985
 6005 Fit       0.020170
 6006 Fit       0.019333
 6007 Fit       0.018765
 6008 Fit       0.019657
 6009 Fit       0.020946
 6010 Fit       0.020137
 6011 Fit      -0.015194
 6012 Fit      -0.017805
 6013 Fit      -0.013436
 6014 Fit      -0.008111
 6015 Fit      -0.003625
 6016 Fit      -0.004448
 6017 Fit      -0.000702
 6018 Fit      -0.001433
 6019 Fit       0.001998
 6020 Fit       0.001539
 6021 Fit       0.001008
 6022 Fit       0.003781
 6023 Fit       0.003406
 6024 Fit       0.003018
 6025 Fit       0.005523
 6026 Fit       0.005205
 6027 Fit       0.004903
 6028 Fit       0.004606
 6029 Fit       0.006926
 6030 Fit       0.006649
 6031 Fit       0.006389
 6032 Fit       0.006124
 6033 Fit       0.005855
 6034 Fit       0.008013
 6035 Fit       0.007804
 6036 Fit       0.007604
 6037 Fit       0.007383
 6038 Fit       0.007128
 6039 Fit       0.006848
 6040 Fit       0.007339
 6041 Fit       0.008863
 6042 Fit       0.008743
 6043 Fit       0.008628
 6044 Fit       0.008483
 6045 Fit       0.008280
 6046 Fit       0.008012
 6047 Fit       0.007691
 6048 Fit       0.008053
 6049 Fit       0.007577
 6050 Fit       0.009499
 6051 Fit       0.009495
 6052 Fit       0.009467
 6053 Fit       0.009371
 6054 Fit       0.009179
 6055 Fit       0.008883
 6056 Fit       0.008498
 6057 Fit       0.008812
 6058 Fit       0.008214
 6059 Fit       0.007589
 6060 Fit       0.010081
 6061 Fit       0.010197
 6062 Fit       0.010308
 6063 Fit       0.010364
 6064 Fit       0.010318
 6065 Fit       0.010136
 6066 Fit       0.009810
 6067 Fit       0.009357
 6068 Fit       0.008988
 6069 Fit       0.008239
 6070 Fit       0.007476
 6071 Fit       0.006689
 6072 Fit       0.002711
 6073 Fit       0.001575
 6074 Fit       0.009158
 6075 Fit       0.009575
 6076 Fit       0.010441
 6077 Fit       0.010603
 6078 Fit       0.010811
 6079 Fit       0.011046
 6080 Fit       0.008122
 6081 Fit       0.007233
 6082 Fit       0.006337
 6083 Fit       0.005404
 6084 Fit       0.004419
 6085 Fit       0.003405
 6086 Fit       0.011138
 6087 Fit       0.011099
 6088 Fit       0.011064
 6089 Fit       0.011047
 6090 Fit       0.011077
 6091 Fit       0.011179
 6092 Fit       0.011373
 6093 Fit       0.007920
 6094 Fit       0.006962
 6095 Fit       0.006010
 6096 Fit       0.005047
 6097 Fit       0.013025
 6098 Fit       0.012597
 6099 Fit       0.012346
 6100 Fit       0.012269
 6101 Fit       0.012368
 6102 Fit       0.008839
 6103 Fit       0.007849
 6104 Fit       0.006908
 6105 Fit       0.015411
 6106 Fit       0.014497
 6107 Fit       0.013975
 6108 Fit       0.008933
 6109 Fit       0.017027
 6110 Fit       0.016024
 6111 Fit       0.010563
 6112 Fit       0.020031
 6113 Fit      -0.010091
 6114 Fit      -0.007496
 6115 Fit      -0.016894
 6116 Fit      -0.012413
 6117 Fit      -0.006984
 6118 Fit      -0.005305
 6119 Fit      -0.004821
 6120 Fit      -0.014156
 6121 Fit      -0.007839
 6122 Fit      -0.004085
 6123 Fit      -0.002240
 6124 Fit      -0.001805
 6125 Fit      -0.002611
 6126 Fit      -0.008188
 6127 Fit      -0.004048
 6128 Fit      -0.001528
 6129 Fit      -0.000052
 6130 Fit       0.000686
 6131 Fit       0.000833
 6132 Fit       0.000447
 6133 Fit      -0.000503
 6134 Fit      -0.010370
 6135 Fit      -0.005158
 6136 Fit      -0.001946
 6137 Fit       0.000118
 6138 Fit       0.001461
 6139 Fit       0.002299
 6140 Fit       0.002747
 6141 Fit       0.002872
 6142 Fit       0.002711
 6143 Fit       0.002272
 6144 Fit       0.001527
 6145 Fit      -0.003668
 6146 Fit      -0.000814
 6147 Fit       0.001082
 6148 Fit       0.002397
 6149 Fit       0.003312
 6150 Fit       0.003922
 6151 Fit       0.004286
 6152 Fit       0.004443
 6153 Fit       0.004424
 6154 Fit       0.004253
 6155 Fit       0.003940
 6156 Fit      -0.001822
 6157 Fit       0.000430
 6158 Fit       0.002016
 6159 Fit       0.003187
 6160 Fit       0.004066
 6161 Fit       0.004718
 6162 Fit       0.005182
 6163 Fit       0.005487
 6164 Fit       0.005658
 6165 Fit       0.005722
 6166 Fit       0.005702
 6167 Fit       0.005620
 6168 Fit       0.005492
 6169 Fit       0.000259
 6170 Fit       0.001881
 6171 Fit       0.003132
 6172 Fit       0.004120
 6173 Fit       0.004903
 6174 Fit       0.005516
 6175 Fit       0.005981
 6176 Fit       0.006317
 6177 Fit       0.006547
 6178 Fit       0.006694
 6179 Fit       0.006784
 6180 Fit       0.006846
 6181 Fit       0.006906
 6182 Fit       0.003053
 6183 Fit       0.004046
 6184 Fit       0.004886
 6185 Fit       0.005584
 6186 Fit       0.006152
 6187 Fit       0.006604
 6188 Fit       0.006954
 6189 Fit       0.007219
 6190 Fit       0.007421
 6191 Fit       0.007585
 6192 Fit       0.007739
 6193 Fit       0.007913
 6194 Fit       0.004493
 6195 Fit       0.005302
 6196 Fit       0.005986
 6197 Fit       0.006556
 6198 Fit       0.007023
 6199 Fit       0.007400
 6200 Fit       0.007704
 6201 Fit       0.007953
 6202 Fit       0.008172
 6203 Fit       0.008390
 6204 Fit       0.008638
 6205 Fit       0.005984
 6206 Fit       0.006648
 6207 Fit       0.007187
 6208 Fit       0.007627
 6209 Fit       0.007989
 6210 Fit       0.008292
 6211 Fit       0.008561
 6212 Fit       0.008823
 6213 Fit       0.009112
 6214 Fit       0.009470
 6215 Fit       0.007466
 6216 Fit       0.007937
 6217 Fit       0.008313
 6218 Fit       0.008628
 6219 Fit       0.008908
 6220 Fit       0.009177
 6221 Fit       0.009468
 6222 Fit       0.009822
 6223 Fit       0.009698
 6224 Fit       0.009835
 6225 Fit       0.010025
 6226 Fit       0.010291
 6227 Fit       0.009737
 6228 Fit       0.010799
 6229 Fit       0.010638
 6230 Fit       0.010409
 6231 Fit       0.010107
 6232 Fit       0.010115
 6233 Fit       0.009679
 6234 Fit       0.009188
 6235 Fit       0.011364
 6236 Fit       0.011315
 6237 Fit       0.011255
 6238 Fit       0.011159
 6239 Fit       0.011005
 6240 Fit       0.010782
 6241 Fit       0.010484
 6242 Fit       0.010605
 6243 Fit       0.010172
 6244 Fit       0.009681
 6245 Fit       0.009141
 6246 Fit       0.011990
 6247 Fit       0.011871
 6248 Fit       0.011800
 6249 Fit       0.011731
 6250 Fit       0.011633
 6251 Fit       0.011481
 6252 Fit       0.011263
 6253 Fit       0.010971
 6254 Fit       0.011172
 6255 Fit       0.010754
 6256 Fit       0.010285
 6257 Fit       0.009781
 6258 Fit       0.009257
 6259 Fit       0.013288
 6260 Fit       0.012821
 6261 Fit       0.012563
 6262 Fit       0.012412
 6263 Fit       0.012302
 6264 Fit       0.012184
 6265 Fit       0.012027
 6266 Fit       0.011811
 6267 Fit       0.011526
 6268 Fit       0.011791
 6269 Fit       0.011412
 6270 Fit       0.011000
 6271 Fit       0.010580
 6272 Fit       0.010179
 6273 Fit       0.009823
 6274 Fit       0.014798
 6275 Fit       0.013947
 6276 Fit       0.013450
 6277 Fit       0.013154
 6278 Fit       0.012957
 6279 Fit       0.012792
 6280 Fit       0.012614
 6281 Fit       0.012395
 6282 Fit       0.012121
 6283 Fit       0.012459
 6284 Fit       0.012116
 6285 Fit       0.011773
 6286 Fit       0.011473
 6287 Fit       0.011276
 6288 Fit       0.011259
 6289 Fit       0.018120
 6290 Fit       0.016118
 6291 Fit       0.014939
 6292 Fit       0.014245
 6293 Fit       0.013822
 6294 Fit       0.013534
 6295 Fit       0.013295
 6296 Fit       0.013051
 6297 Fit       0.012775
 6298 Fit       0.013193
 6299 Fit       0.012916
 6300 Fit       0.012702
 6301 Fit       0.012633
 6302 Fit       0.012838
 6303 Fit       0.013523
 6304 Fit       0.019974
 6305 Fit       0.017449
 6306 Fit       0.015934
 6307 Fit       0.015030
 6308 Fit       0.014471
 6309 Fit       0.014089
 6310 Fit       0.013780
 6311 Fit       0.013487
 6312 Fit       0.014034
 6313 Fit       0.013859
 6314 Fit       0.013892
 6315 Fit       0.014317
 6316 Fit       0.015448
 6317 Fit       0.022828
 6318 Fit       0.019441
 6319 Fit       0.017278
 6320 Fit       0.015977
 6321 Fit       0.015194
 6322 Fit       0.014687
 6323 Fit       0.014318
 6324 Fit       0.015056
 6325 Fit       0.015099
 6326 Fit       0.015788
 6327 Fit       0.017600
 6328 Fit       0.020853
 6329 Fit       0.022488
 6330 Fit       0.019447
 6331 Fit       0.017315
 6332 Fit       0.016076
 6333 Fit       0.015391
 6334 Fit       0.016385
 6335 Fit       0.017117
 6336 Fit       0.019512
 6337 Fit       0.020905
 6338 Fit       0.019024
 6339 Fit       0.017076
 6340 Fit       0.018223
 6341 Fit      -0.019569
 6342 Fit      -0.013021
 6343 Fit      -0.018391
 6344 Fit      -0.019733
 6345 Fit      -0.013370
 6346 Fit      -0.008121
 6347 Fit      -0.011007
 6348 Fit      -0.016491
 6349 Fit      -0.008330
 6350 Fit      -0.007268
 6351 Fit      -0.004375
 6352 Fit      -0.006219
 6353 Fit      -0.009305
 6354 Fit      -0.014143
 6355 Fit      -0.003389
 6356 Fit      -0.003476
 6357 Fit      -0.001464
 6358 Fit      -0.002826
 6359 Fit      -0.004901
 6360 Fit      -0.007964
 6361 Fit      -0.012461
 6362 Fit      -0.019127
 6363 Fit      -0.000247
 6364 Fit      -0.000638
 6365 Fit       0.000823
 6366 Fit      -0.000272
 6367 Fit      -0.001819
 6368 Fit      -0.003987
 6369 Fit      -0.007031
 6370 Fit      -0.011360
 6371 Fit      -0.017672
 6372 Fit       0.002097
 6373 Fit       0.001586
 6374 Fit       0.002636
 6375 Fit       0.001729
 6376 Fit       0.000542
 6377 Fit      -0.001028
 6378 Fit      -0.003125
 6379 Fit      -0.005957
 6380 Fit      -0.009853
 6381 Fit      -0.015375
 6382 Fit       0.003922
 6383 Fit       0.003346
 6384 Fit       0.004089
 6385 Fit       0.003255
 6386 Fit       0.002233
 6387 Fit       0.000940
 6388 Fit      -0.000725
 6389 Fit      -0.002898
 6390 Fit      -0.005778
 6391 Fit      -0.009684
 6392 Fit       0.005457
 6393 Fit       0.004803
 6394 Fit       0.005276
 6395 Fit       0.004487
 6396 Fit       0.003585
 6397 Fit       0.002508
 6398 Fit       0.001182
 6399 Fit      -0.000476
 6400 Fit      -0.002574
 6401 Fit      -0.005266
 6402 Fit      -0.008784
 6403 Fit       0.006011
 6404 Fit       0.006283
 6405 Fit       0.005488
 6406 Fit       0.004639
 6407 Fit       0.003683
 6408 Fit       0.002562
 6409 Fit       0.001220
 6410 Fit      -0.000403
 6411 Fit      -0.002375
 6412 Fit      -0.004768
 6413 Fit      -0.007655
 6414 Fit       0.007081
 6415 Fit       0.007202
 6416 Fit       0.006324
 6417 Fit       0.005447
 6418 Fit       0.004513
 6419 Fit       0.003469
 6420 Fit       0.002270
 6421 Fit       0.000883
 6422 Fit      -0.000707
 6423 Fit      -0.002471
 6424 Fit       0.007104
 6425 Fit       0.006141
 6426 Fit       0.005178
 6427 Fit       0.004157
 6428 Fit       0.003040
 6429 Fit       0.001813
 6430 Fit       0.000507
 6431 Fit       0.005847
 6432 Fit       0.004834
 6433 Fit       0.003780
 -----------------------------------------------------------------
 Leave Link  602 at Thu Aug  1 16:17:24 2002, MaxMem=    6291456 cpu:      17.8

 Test job not archived.
 1\1\GINC-EIR\SP\RHF\6-31G(d)\C6H12N2O2\RAYL\01-Aug-2002\0\\#HF/6-31G* 
 SCF=TIGHT TEST POP=MK IOP(6/33=2) IOP(6/42=6)\\remark line goes here\\
 0,1\H,0,-2.794013,-1.121503,1.801666\C,0,-3.193899,-0.892731,0.820806\
 H,0,-3.943124,-0.114611,0.926702\H,0,-3.673562,-1.768756,0.407363\C,0,
 -2.135869,-0.41622,-0.149639\O,0,-2.270663,-0.531772,-1.338852\N,0,-1.
 055212,0.169955,0.414298\H,0,-0.974441,0.219939,1.40391\C,0,0.039967,0
 .718405,-0.358249\H,0,-0.105242,0.383339,-1.374538\C,0,0.064305,2.2456
 26,-0.318687\H,0,0.887629,2.632515,-0.911835\H,0,-0.862946,2.636544,-0
 .721176\H,0,0.185569,2.595336,0.699523\C,0,1.331127,0.154017,0.227069\
 O,0,1.616089,0.356975,1.37963\N,0,2.099971,-0.568984,-0.605097\H,0,1.7
 4855,-0.793325,-1.505403\C,0,3.318718,-1.206221,-0.15324\H,0,3.114461,
 -2.094088,0.43617\H,0,3.908991,-1.484912,-1.01641\H,0,3.885305,-0.5161
 57,0.455048\\Version=SGI64-G98RevA.11.3\HF=-492.8589123\RMSD=4.310e-09
 \Dipole=0.3630887,-0.2247022,-0.0071258\PG=C01 [X(C6H12N2O2)]\\@


 LEARN FROM YESTERDAY,
 LIVE FOR TODAY,
 LOOK TO TOMORROW,
 REST THIS AFTERNOON.

           -- SNOOPY
 Job cpu time:  0 days  0 hours 10 minutes  9.6 seconds.
 File lengths (MBytes):  RWF=   24 Int=    0 D2E=    0 Chk=    9 Scr=    1
 Normal termination of Gaussian 98.
