 Entering Gaussian System, Link 0=g98
 Input=input.com
 Output=aa_single.out
 Initial command:
 /usr/local/apps/chemistry/g98a11.3/g98/l1.exe /scratch-eir/LSBATCH/815067.1Aug2002131327/Gau-10157900.inp -scrdir=/scratch-eir/LSBATCH/815067.1Aug2002131327/
 Entering Link 1 = /usr/local/apps/chemistry/g98a11.3/g98/l1.exe PID=   8581810.
  
 Copyright (c) 1988,1990,1992,1993,1995,1998 Gaussian, Inc.
                  All Rights Reserved.
  
 This is part of the Gaussian(R) 98 program.  It is based on
 the Gaussian 94(TM) system (copyright 1995 Gaussian, Inc.),
 the Gaussian 92(TM) system (copyright 1992 Gaussian, Inc.),
 the Gaussian 90(TM) system (copyright 1990 Gaussian, Inc.),
 the Gaussian 88(TM) system (copyright 1988 Gaussian, Inc.),
 the Gaussian 86(TM) system (copyright 1986 Carnegie Mellon
 University), and the Gaussian 82(TM) system (copyright 1983
 Carnegie Mellon University). Gaussian is a federally registered
 trademark of Gaussian, Inc.
  
 This software contains proprietary and confidential information,
 including trade secrets, belonging to Gaussian, Inc.
  
 This software is provided under written license and may be
 used, copied, transmitted, or stored only in accord with that
 written license.
  
 The following legend is applicable only to US Government
 contracts under DFARS:
  
                    RESTRICTED RIGHTS LEGEND
  
 Use, duplication or disclosure by the US Government is subject
 to restrictions as set forth in subparagraph (c)(1)(ii) of the
 Rights in Technical Data and Computer Software clause at DFARS
 252.227-7013.
  
 Gaussian, Inc.
 Carnegie Office Park, Building 6, Pittsburgh, PA 15106 USA
  
 The following legend is applicable only to US Government
 contracts under FAR:
  
                    RESTRICTED RIGHTS LEGEND
  
 Use, reproduction and disclosure by the US Government is subject
 to restrictions as set forth in subparagraph (c) of the
 Commercial Computer Software - Restricted Rights clause at FAR
 52.227-19.
  
 Gaussian, Inc.
 Carnegie Office Park, Building 6, Pittsburgh, PA 15106 USA
  
  
 ---------------------------------------------------------------
 Warning -- This program may not be used in any manner that
 competes with the business of Gaussian, Inc. or will provide
 assistance to any competitor of Gaussian, Inc.  The licensee
 of this program is prohibited from giving any competitor of
 Gaussian, Inc. access to this program.  By using this program,
 the user acknowledges that Gaussian, Inc. is engaged in the
 business of creating and licensing software in the field of
 computational chemistry and represents and warrants to the
 licensee that it is not a competitor of Gaussian, Inc. and that
 it will not use this program in any manner prohibited above.
 ---------------------------------------------------------------
  

 Cite this work as:
 Gaussian 98, Revision A.11.3,
 M. J. Frisch, G. W. Trucks, H. B. Schlegel, G. E. Scuseria, 
 M. A. Robb, J. R. Cheeseman, V. G. Zakrzewski, J. A. Montgomery, Jr., 
 R. E. Stratmann, J. C. Burant, S. Dapprich, J. M. Millam, 
 A. D. Daniels, K. N. Kudin, M. C. Strain, O. Farkas, J. Tomasi, 
 V. Barone, M. Cossi, R. Cammi, B. Mennucci, C. Pomelli, C. Adamo, 
 S. Clifford, J. Ochterski, G. A. Petersson, P. Y. Ayala, Q. Cui, 
 K. Morokuma, N. Rega, P. Salvador, J. J. Dannenberg, D. K. Malick, 
 A. D. Rabuck, K. Raghavachari, J. B. Foresman, J. Cioslowski, 
 J. V. Ortiz, A. G. Baboul, B. B. Stefanov, G. Liu, A. Liashenko, 
 P. Piskorz, I. Komaromi, R. Gomperts, R. L. Martin, D. J. Fox, 
 T. Keith, M. A. Al-Laham, C. Y. Peng, A. Nanayakkara, M. Challacombe, 
 P. M. W. Gill, B. Johnson, W. Chen, M. W. Wong, J. L. Andres, 
 C. Gonzalez, M. Head-Gordon, E. S. Replogle, and J. A. Pople, 
 Gaussian, Inc., Pittsburgh PA, 2002.

 *******************************************
 Gaussian 98:  SGI64-G98RevA.11.3 5-Feb-2002
                  1-Aug-2002 
 *******************************************
 %chk=xx1
 --------------------------------------------------------
 #HF/6-31G* SCF=tight Test Pop=MK iop(6/33=2) iop(6/42=6)
 --------------------------------------------------------
 1/38=1/1;
 2/17=6,18=5,40=1/2;
 3/5=1,6=6,7=1,11=9,25=1,30=1/1,2,3;
 4//1;
 5/5=2,32=2,38=4/2;
 6/7=2,8=2,9=2,10=2,15=8,20=1,28=1,33=2,42=6/1,2;
 99/5=1,9=1/99;
 ---------------------
 remark line goes here
 ---------------------
 Symbolic Z-matrix:
 Charge =  0 Multiplicity = 1
 H                     3.22391  -0.43258  -1.4563 
 C                     3.1833   -0.65951  -0.39666 
 H                     3.91177  -0.03648   0.11348 
 H                     3.44422  -1.69504  -0.23339 
 C                     1.81466  -0.40174   0.19371 
 O                     1.35435  -1.07621   1.07017 
 N                     1.13857   0.65574  -0.33254 
 H                     1.61878   1.24895  -0.96891 
 C                    -0.08103   1.1657    0.27306 
 H                     0.10714   1.43302   1.30568 
 C                    -0.55987   2.39825  -0.492 
 H                    -1.46506   2.77957  -0.03711 
 H                     0.19105   3.18218  -0.46008 
 H                    -0.77028   2.15816  -1.52912 
 C                    -1.21222   0.13871   0.35012 
 O                    -1.98529   0.17823   1.26557 
 N                    -1.36532  -0.67203  -0.72026 
 H                    -0.57858  -0.78313  -1.31506 
 C                    -2.34913  -1.73361  -0.69995 
 H                    -3.29653  -1.33788  -0.36509 
 H                    -2.46489  -2.12284  -1.70386 
 H                    -2.06095  -2.54287  -0.03623 
 ------------------------------------------------------------------------
                         Z-MATRIX (ANGSTROMS AND DEGREES)
 CD Cent Atom  N1     Length/X     N2    Alpha/Y     N3     Beta/Z      J
 ------------------------------------------------------------------------
   1   1  H     0   3.223909         -0.432583         -1.456304
   2   2  C     0   3.183295         -0.659513         -0.396659
   3   3  H     0   3.911771         -0.036483          0.113484
   4   4  H     0   3.444220         -1.695036         -0.233387
   5   5  C     0   1.814655         -0.401736          0.193709
   6   6  O     0   1.354351         -1.076212          1.070166
   7   7  N     0   1.138566          0.655736         -0.332536
   8   8  H     0   1.618780          1.248954         -0.968907
   9   9  C     0  -0.081034          1.165699          0.273056
  10  10  H     0   0.107142          1.433023          1.305681
  11  11  C     0  -0.559866          2.398252         -0.492001
  12  12  H     0  -1.465057          2.779575         -0.037113
  13  13  H     0   0.191050          3.182182         -0.460077
  14  14  H     0  -0.770277          2.158162         -1.529123
  15  15  C     0  -1.212221          0.138708          0.350124
  16  16  O     0  -1.985294          0.178234          1.265566
  17  17  N     0  -1.365316         -0.672027         -0.720261
  18  18  H     0  -0.578583         -0.783131         -1.315057
  19  19  C     0  -2.349128         -1.733614         -0.699947
  20  20  H     0  -3.296532         -1.337875         -0.365086
  21  21  H     0  -2.464895         -2.122839         -1.703865
  22  22  H     0  -2.060946         -2.542866         -0.036230
 ------------------------------------------------------------------------
                         Z-Matrix orientation:                         
 ---------------------------------------------------------------------
 Center     Atomic     Atomic              Coordinates (Angstroms)
 Number     Number      Type              X           Y           Z
 ---------------------------------------------------------------------
    1          1             0        3.223909   -0.432583   -1.456304
    2          6             0        3.183295   -0.659513   -0.396659
    3          1             0        3.911771   -0.036483    0.113484
    4          1             0        3.444220   -1.695036   -0.233387
    5          6             0        1.814655   -0.401736    0.193709
    6          8             0        1.354351   -1.076212    1.070166
    7          7             0        1.138566    0.655736   -0.332536
    8          1             0        1.618780    1.248954   -0.968907
    9          6             0       -0.081034    1.165699    0.273056
   10          1             0        0.107142    1.433023    1.305681
   11          6             0       -0.559866    2.398252   -0.492001
   12          1             0       -1.465057    2.779575   -0.037113
   13          1             0        0.191050    3.182182   -0.460077
   14          1             0       -0.770277    2.158162   -1.529123
   15          6             0       -1.212221    0.138708    0.350124
   16          8             0       -1.985294    0.178234    1.265566
   17          7             0       -1.365316   -0.672027   -0.720261
   18          1             0       -0.578583   -0.783131   -1.315057
   19          6             0       -2.349128   -1.733614   -0.699947
   20          1             0       -3.296532   -1.337875   -0.365086
   21          1             0       -2.464895   -2.122839   -1.703865
   22          1             0       -2.060946   -2.542866   -0.036230
 ---------------------------------------------------------------------
                    Distance matrix (angstroms):
                    1          2          3          4          5
     1  H    0.000000
     2  C    1.084433   0.000000
     3  H    1.759058   1.085859   0.000000
     4  H    1.771398   1.080300   1.757760   0.000000
     5  C    2.170136   1.512666   2.130197   2.123798   0.000000
     6  O    3.208201   2.381229   2.921759   2.539635   1.197904
     7  N    2.606904   2.432058   2.892882   3.294237   1.360984
     8  H    2.375197   2.533263   2.842838   3.541228   2.028502
     9  C    4.058059   3.799442   4.172912   4.568118   2.461054
    10  H    4.563254   4.091379   4.249233   4.825927   2.741974
    11  C    4.822910   4.834281   5.127386   5.731893   3.734767
    12  H    5.858196   5.793425   6.071502   6.645425   4.574990
    13  H    4.822575   4.869925   4.953034   5.867006   3.988483
    14  H    4.761385   4.985228   5.425514   5.855600   4.025308
    15  C    4.823775   4.529393   5.132444   5.038407   3.078721
    16  O    5.909101   5.493553   6.012385   5.935960   3.990596
    17  N    4.654039   4.560125   5.380213   4.941177   3.319731
    18  H    3.821228   3.874334   4.770901   4.264332   2.854720
    19  C    5.772651   5.643880   6.537643   5.812233   4.462018
    20  H    6.672815   6.515315   7.340455   6.751492   5.226169
    21  H    5.939759   5.979311   6.951080   6.104340   4.987738
    22  H    5.865117   5.583815   6.479021   5.573557   4.433688
                    6          7          8          9         10
     6  O    0.000000
     7  N    2.239147   0.000000
     8  H    3.103891   0.993721   0.000000
     9  C    2.778827   1.454039   2.106839   0.000000
    10  H    2.811985   2.086089   2.737276   1.083137   0.000000
    11  C    4.263390   2.438537   2.508949   1.527671   2.146678
    12  H    4.903287   3.372954   3.566664   2.148562   2.467409
    13  H    4.672134   2.701293   2.456561   2.162803   2.486865
    14  H    4.661708   2.707912   2.616886   2.169767   3.054800
    15  C    2.929468   2.501908   3.314673   1.529782   2.080639
    16  O    3.572820   3.541248   4.373632   2.363550   2.440163
    17  N    3.281095   2.860544   3.557643   2.452202   3.271668
    18  H    3.084059   2.446280   3.012904   2.562732   3.499975
    19  C    4.157070   4.243583   4.971151   3.807493   4.481450
    20  H    4.874334   4.862678   5.587180   4.124868   4.696204
    21  H    4.835009   4.752468   5.346546   4.517244   5.321362
    22  H    3.878072   4.533843   5.365461   4.215349   4.723243
                   11         12         13         14         15
    11  C    0.000000
    12  H    1.082451   0.000000
    13  H    1.086020   1.756041   0.000000
    14  H    1.085144   1.759252   1.765114   0.000000
    15  C    2.498055   2.681055   3.447946   2.793757   0.000000
    16  O    3.170074   2.955435   4.091213   3.634098   1.198849
    17  N    3.182368   3.519971   4.164721   3.003048   1.351463
    18  H    3.286179   3.887396   4.128805   2.955296   2.006019
    19  C    4.507440   4.646483   5.538510   4.280914   2.429155
    20  H    4.632936   4.518325   5.709918   4.467574   2.652579
    21  H    5.053515   5.273652   6.061708   4.607519   3.301917
    22  H    5.184170   5.355694   6.166628   5.098453   2.839092
                   16         17         18         19         20
    16  O    0.000000
    17  N    2.247404   0.000000
    18  H    3.092357   0.992510   0.000000
    19  C    2.766004   1.447503   2.101573   0.000000
    20  H    2.583981   2.073427   2.932138   1.079961   0.000000
    21  H    3.787146   2.069156   2.346095   1.082936   1.760715
    22  H    3.017413   2.109938   2.632388   1.085568   1.756935
                   21         22
    21  H    0.000000
    22  H    1.766523   0.000000
                           Interatomic angles:
       H1-C2-H3=108.2929       H1-C2-H4=109.8296       H1-H3-H4= 60.4893
       H3-C2-H4=108.4782       H1-C2-C5=112.3081       H1-H3-C5= 67.0475
       H3-C2-C5=109.018        H1-H4-C5= 67.0087       H4-C2-C5=108.8382
       H3-H4-C5= 65.7839       H1-C2-O6=131.859        H1-H3-O6= 82.5185
       H3-C2-O6=109.0434       H1-H4-O6= 94.4938       H4-C2-O6= 85.68  
       H3-H4-O6= 83.551        H1-C5-O6=142.9232       C2-C5-O6=122.4983
       H3-C5-O6=120.1581       H4-C5-O6= 95.6875       H1-C2-N7= 86.7945
       H3-H1-N7= 80.4509       H3-C2-N7=103.9665       H4-H1-N7= 95.7057
       H4-C2-N7=135.8452       H4-H3-N7= 86.5811       H1-C5-N7= 92.272 
       C2-C5-N7=115.5289       H3-C5-N7=109.9538       H4-C5-N7=140.9464
       H1-N7-O6= 82.5329       C2-O6-N7= 63.4343       H3-N7-O6= 68.0344
       H4-O6-N7= 86.9178       O6-C5-N7=121.9719       C2-H1-H8= 85.5451
       H3-H1-H8= 85.5103       H3-C2-H8= 95.0599       H4-H1-H8=116.5472
       H4-C2-H8=154.8832       H4-H3-H8= 97.8723       H1-C5-H8= 68.8076
       C2-C5-H8= 90.1348       H3-C5-H8= 86.2127       H4-C5-H8=117.0243
       O6-C2-H8= 78.2661       O6-H3-H8= 65.1382       O6-C5-H8=147.1842
       H1-H8-N7= 92.0262       C2-N7-H8= 84.2416       H3-H8-N7= 82.8786
       C5-N7-H8=118.1248       O6-N7-H8=144.7206       H1-C5-C9=122.2607
       C2-C5-C9=144.8904       H3-C5-C9=130.5659       H4-C5-C9=170.18  
       C2-O6-C9= 94.523        H3-O6-C9= 94.0776       H4-O6-C9=118.3212
       O6-C5-C9= 92.2367       H1-N7-C9=175.4957       C2-N7-C9=154.936 
       H3-N7-C9=145.4646       C5-N7-C9=121.8796       O6-N7-C9= 95.2328
       H1-H8-C9=129.6592       C2-H8-C9=109.5934       H3-H8-C9=114.1073
       C5-H8-C9= 73.0156       O6-C9-H8= 77.5391       H8-N7-C9=117.5602
      H1-C5-H10=136.2401      C2-C5-H10=146.6932      H3-C5-H10=120.9039
      H4-C5-H10=165.2045      C2-O6-H10=103.6566      H3-O6-H10= 95.6301
      H4-O6-H10=128.712       O6-C5-H10= 80.8367      H1-N7-H10=152.8215
      C2-N7-H10=129.6351      H3-N7-H10=116.2352      C5-N7-H10=103.384 
      O6-N7-H10= 81.0195      H1-H8-H10=126.2509      C2-H8-H10=101.7714
      H3-H8-H10= 99.175       C5-H8-H10= 68.3944      O6-H10-H8= 68.0041
      H8-N7-H10=121.2922      C5-C9-H10= 93.1015      O6-C9-H10= 80.5553
      N7-C9-H10=109.7493      H8-C9-H10=114.3355      H1-N7-C11=145.82  
      C2-N7-C11=165.9981      H3-N7-C11=148.0761      C5-N7-C11=157.8954
      O6-N7-C11=131.3609      H1-H8-C11=161.8283      C2-H8-C11=146.9763
      H3-H8-C11=146.6319      C5-H8-C11=110.3447      H8-N7-C11= 82.4221
      C5-C9-C11=137.6588      O6-C9-C11=163.0358      N7-C9-C11=109.7121
      H8-C9-C11= 85.7439     C5-H10-C11= 98.9026     O6-H10-C11=117.9632
     N7-H10-C11= 70.3381     H8-C11-H10= 71.5425     H10-C9-C11=109.4371
      C5-C9-H12=165.913       O6-C9-H12=168.567       N7-C9-H12=138.0406
      H8-C9-H12=113.8869     C5-H10-H12=122.7701     O6-H10-H12=136.3868
     N7-H10-H12= 95.222      H8-H10-H12= 86.351      H10-C9-H12= 93.6783
     N7-C11-H12=143.7735     H8-C11-H12=165.3302     C9-C11-H12=109.626 
    H10-C11-H12= 93.8022      H1-N7-H13=130.5935      C2-N7-H13=143.0775
      H3-N7-H13=124.5641      C5-N7-H13=156.8097      O6-N7-H13=141.8875
      H1-H8-H13=172.9329      C2-H8-H13=154.8257      H3-H8-H13=138.224 
      C5-H8-H13=125.2957      N7-H8-H13= 93.2267      C5-C9-H13=119.0765
      O6-C9-H13=141.6703      N7-C9-H13= 94.6056      H8-C9-H13= 70.235 
     C5-H10-H13= 99.3049     O6-H10-H13=123.5868     N7-H10-H13= 71.8081
     H8-H13-H10= 67.242      H10-C9-H13= 94.083      N7-C11-H13= 91.851 
     H8-H13-C11= 80.0789     C9-C11-H13=110.5452    H10-C11-H13= 94.8822
     N7-H13-H12= 96.0272     H8-H13-H12=114.6818     C9-H12-H13= 66.3894
    H10-H12-H13= 69.8351    H12-C11-H13=108.1538      H1-N7-H14=127.2306
      C2-N7-H14=151.769       H3-N7-H14=151.2399      C5-N7-H14=162.2009
      O6-N7-H14=140.7055      H1-H8-H14=144.9843      C2-H8-H14=150.9183
      H3-H8-H14=167.1541      C5-H8-H14=119.5761      N7-H8-H14= 84.4524
      C5-C9-H14=120.6122      O6-C9-H14=140.4767      N7-C9-H14= 94.6422
      H8-C9-H14= 75.439      H10-N7-H14= 77.9804     H10-H8-H14= 69.535 
     H10-C9-H14=137.2354     N7-C11-H14= 92.2609     H8-C11-H14= 83.4168
     C9-C11-H14=111.1557    H10-C11-H14=139.564      N7-H14-H12= 95.7167
     H8-H14-H12=107.5605     C9-H12-H14= 66.5912    H10-H12-H14= 90.9816
    H12-C11-H14=108.5079     N7-H13-H14= 71.1579     H8-H13-H14= 74.6051
     C9-H13-H14= 66.1646    H10-H13-H14= 90.2068    H13-C11-H14=108.7762
    H13-H12-H14= 60.2812      C2-O6-C15=116.6757      H3-O6-C15=122.6025
      H4-O6-C15=134.0954      C5-O6-C15= 85.6018      H1-N7-C15=141.5325
      C2-N7-C15=133.2666      H3-N7-C15=144.0188      C5-N7-C15=101.5772
      O6-N7-C15= 76.1002      H8-N7-C15=138.7777      C5-C9-C15= 98.258 
      O6-C9-C15= 79.9728      N7-C9-C15=113.9383      H8-C9-C15=130.7542
     C5-H10-C15= 78.0171     O6-H10-C15= 71.8012     N7-H10-C15= 73.804 
     H8-H10-C15= 85.7977     H10-C9-C15=104.2483     O6-C15-C11=103.2495
     N7-C11-C15= 60.8888     H8-C11-C15= 82.906      C11-C9-C15=109.5787
    C11-H10-C15= 72.4272     O6-C15-H12=121.7781     N7-C15-H12= 81.1205
     H12-C9-C15= 92.0182    H12-H10-C15= 71.6696    H12-C11-C15= 87.6269
     H13-N7-C15= 82.9107     H13-C9-C15=137.393     H13-H10-C15= 97.6341
    H13-C11-C15=145.4441    H13-H12-C15= 99.8857     O6-C15-H14=109.0578
     H14-N7-C15= 64.7159     H8-H14-C15= 75.4794     H14-C9-C15= 96.5474
    H10-C15-H14= 76.0516    H14-C11-C15= 94.0961    H14-H12-C15= 74.7708
    H13-H14-C15= 95.6304      C5-C9-O16=111.5951      O6-C9-O16= 87.63  
      N7-C9-O16=134.7603      H8-C9-O16=156.0751     C5-H10-O16=100.5584
     O6-H10-O16= 85.4167     N7-H10-O16=102.6773     H8-H10-O16=115.1701
     H10-C9-O16= 80.9524     C11-C9-O16=107.1483    C11-H10-O16= 87.1919
     H12-C9-O16= 81.6889    H12-H10-O16= 74.0557    C11-H12-O16= 91.2813
     H13-C9-O16=129.2883    H13-H10-O16=112.2683    H13-H12-O16=118.2927
     H14-C9-O16=106.4962    H14-H12-O16= 97.6101     O6-C15-O16=113.0136
     N7-C15-O16=143.8461     C9-C15-O16=119.5486    H10-C15-O16= 92.1608
    C11-C15-O16=113.3281    H12-C15-O16= 90.9742    H14-C15-O16=126.2862
      H1-N7-N17=116.6146      C2-N7-N17=118.7718      H3-N7-N17=138.4983
      C5-N7-N17= 97.2723      O6-N7-N17= 79.0612      H8-N7-N17=127.8275
      C5-C9-N17= 85.0119      O6-C9-N17= 77.4145      N7-C9-N17= 90.4434
      H8-C9-N17=102.3202     H10-N7-N17= 81.1765     H10-C9-N17=131.4625
     C11-N7-N17= 73.3312     C11-C9-N17=103.7466     H12-C9-N17= 99.618 
     H13-N7-N17= 96.932      H13-C9-N17=128.8509     H14-N7-N17= 65.2042
     H8-H14-N17= 78.2169     H14-C9-N17= 80.7917    C11-H14-N17= 89.3989
    H12-H14-N17= 91.5018    H13-H14-N17=119.4415     O6-C15-N17= 92.5866
     N7-C15-N17= 90.8195     C9-C15-N17=116.5252    H10-C15-N17=143.9746
    C11-C15-N17=107.7702    H12-C15-N17=117.7636    H14-C15-N17= 85.342 
     N7-N17-O16= 86.9099     C9-O16-N17= 64.1992    H10-O16-N17= 88.4253
    H12-O16-N17= 83.9711    H14-N17-O16= 86.3366    O16-C15-N17=123.4711
      H1-C5-H18= 98.0863      C2-C5-H18=121.9706      H3-C5-H18=145.9274
      H4-C5-H18=117.1042      O6-C5-H18= 89.3886      H1-N7-H18= 98.2109
      C2-N7-H18=105.1575      H3-N7-H18=126.4474      C5-N7-H18= 92.6931
      O6-N7-H18= 82.2007      H1-H8-H18= 89.5301      C2-H8-H18= 88.181 
      H3-H8-H18=109.0887      H8-C5-H18= 74.0292      H8-N7-H18=115.6666
      C5-C9-H18= 69.2213      O6-C9-H18= 70.3987      C9-N7-H18= 77.5728
      H8-C9-H18= 79.7109     H10-C5-H18= 77.3889     H10-N7-H18=100.8074
     H10-H8-H18= 74.815      H10-C9-H18=144.3123     C11-N7-H18= 84.5566
     C11-H8-H18= 72.3917     C11-C9-H18=104.0252     H12-C9-H18=110.8967
     H13-N7-H18=106.5549     H13-H8-H18= 97.5101     H13-C9-H18=121.5584
     C5-H18-H14= 87.69       H14-N7-H18= 69.7605     H8-H14-H18= 65.1328
     H14-C9-H18= 76.7883    C11-H14-H18= 97.9551    H12-H14-H18=108.4053
    H13-H14-H18=119.8808     C5-H18-C15= 76.3904     O6-C15-H18= 74.7347
     N7-H18-C15= 67.5443     H8-H18-C15= 79.9249     C9-C15-H18= 91.8977
    H10-C15-H18=117.8267    C11-C15-H18= 93.0575    H12-C15-H18=111.2564
    H14-C15-H18= 73.9687     O16-C9-H18= 77.6488    O16-C15-H18=148.5062
     C5-H18-N17=109.4414     N7-H18-N17=104.4698     H8-H18-N17=115.7062
     C9-N17-H18= 84.9228    H14-H18-N17= 83.1414    C15-N17-H18=116.8724
    O16-N17-H18=142.2373     O6-C15-C19=101.3406     N7-C15-C19=118.7565
     C9-C15-C19=147.3247    H10-C15-C19=167.1069    C11-C15-C19=132.3513
    H12-C15-C19=130.7413    H14-C15-C19=109.9018     C9-O16-C19= 95.5293
    H10-O16-C19=118.6791    H12-O16-C19=108.5616    O16-C15-C19= 93.078 
     N7-N17-C19=158.9762     C9-N17-C19=154.1435    H14-N17-C19=146.0606
    C15-N17-C19=120.3868    O16-N17-C19= 94.4489     C5-H18-C19=127.7361
     N7-H18-C19=137.7179     H8-H18-C19=152.3566     C9-H18-C19=109.0334
    H14-H18-C19=114.6253    C15-H18-C19= 72.468     O16-C19-H18= 77.5585
    H18-N17-C19=117.7141     O6-C15-H20=121.5903     N7-C15-H20=141.2397
     C9-C15-H20=160.2456    H10-C15-H20=165.5534    C11-C15-H20=128.1567
    H12-C15-H20=115.8025    H14-C15-H20=110.2008     C9-O16-H20=112.8906
    H10-O16-H20=138.3504    H12-O16-H20=109.1235    C15-O16-H20= 79.9797
     N7-N17-H20=160.2409     C9-N17-H20=131.2298    H14-N17-H20=122.2316
    C15-N17-H20= 99.3512    O16-N17-H20= 73.333      C5-H18-H20=129.135 
     N7-H18-H20=129.1848     H8-H18-H20=140.0338     C9-H18-H20= 97.0691
    H14-H18-H20= 98.7219    H18-C15-H20= 76.6192    O16-H20-H18= 67.8562
    H18-N17-H20=143.6114    C15-C19-H20= 89.6622    O16-H20-C19= 88.0235
    N17-C19-H20=109.3809    H18-C19-H20=131.6134     N7-N17-H21=148.7644
     C9-N17-H21=175.0934    H14-N17-H21=129.6473    C15-N17-H21=149.017 
    O16-N17-H21=122.5958     C5-H18-H21=146.9219     N7-H18-H21=165.1982
     H8-H18-H21=172.125      C9-H18-H21=133.8716    H14-H18-H21=120.2766
    C15-H18-H21= 98.3961    H18-N17-H21= 93.3174    C15-C19-H21=136.702 
    O16-C19-H21=157.1074    N17-C19-H21=108.859     H18-C19-H21= 88.9275
    C15-H20-H21= 94.7061    O16-H20-H21=120.1145    N17-H21-H20= 64.9734
    H18-H21-H20= 89.9525    H20-C19-H21=108.9878     O6-C15-H22= 84.4706
     N7-C15-H22=116.0364     C9-C15-H22=148.0251    H10-C15-H22=147.1004
    C11-C15-H22=152.4402    H12-C15-H22=151.947     H14-C15-H22=129.6795
    O16-C15-H22= 86.6912     N7-N17-H22=131.0113     C9-N17-H22=134.8975
    H14-N17-H22=171.2227    C15-N17-H22=108.2095    O16-N17-H22= 87.5955
     C5-H18-H22=107.737      N7-H18-H22=126.3959     H8-H18-H22=143.6833
     C9-H18-H22=108.4595    H14-H18-H22=131.6048    C15-H18-H22= 74.1012
    H18-N17-H22=110.8771    C15-C19-H22=100.7219    O16-C19-H22= 92.6298
    N17-C19-H22=112.0163    H18-C19-H22=107.0048    C15-H20-H22= 77.2155
    O16-H20-H22= 85.8379    N17-H20-H22= 66.252     H18-H22-H20= 81.1765
    H20-C19-H22=108.4498    C15-H22-H21= 88.4096    N17-H21-H22= 66.1993
    H18-H21-H22= 78.1982    H21-C19-H22=109.1011    H21-H20-H22= 60.2897
 Stoichiometry    C6H12N2O2
 Framework group  C1[X(C6H12N2O2)]
 Deg. of freedom   60
 Full point group                 C1      NOp   1
 Largest Abelian subgroup         C1      NOp   1
 Largest concise Abelian subgroup C1      NOp   1
                         Standard orientation:                         
 ---------------------------------------------------------------------
 Center     Atomic     Atomic              Coordinates (Angstroms)
 Number     Number      Type              X           Y           Z
 ---------------------------------------------------------------------
    1          1             0        3.223909   -0.432583   -1.456304
    2          6             0        3.183295   -0.659513   -0.396659
    3          1             0        3.911771   -0.036483    0.113484
    4          1             0        3.444220   -1.695036   -0.233387
    5          6             0        1.814655   -0.401736    0.193709
    6          8             0        1.354351   -1.076212    1.070166
    7          7             0        1.138566    0.655736   -0.332536
    8          1             0        1.618780    1.248954   -0.968907
    9          6             0       -0.081034    1.165699    0.273056
   10          1             0        0.107142    1.433023    1.305681
   11          6             0       -0.559866    2.398252   -0.492001
   12          1             0       -1.465057    2.779575   -0.037113
   13          1             0        0.191050    3.182182   -0.460077
   14          1             0       -0.770277    2.158162   -1.529123
   15          6             0       -1.212221    0.138708    0.350124
   16          8             0       -1.985294    0.178234    1.265566
   17          7             0       -1.365316   -0.672027   -0.720261
   18          1             0       -0.578583   -0.783131   -1.315057
   19          6             0       -2.349128   -1.733614   -0.699947
   20          1             0       -3.296532   -1.337875   -0.365086
   21          1             0       -2.464895   -2.122839   -1.703865
   22          1             0       -2.060946   -2.542866   -0.036230
 ---------------------------------------------------------------------
 Rotational constants (GHZ):      1.7978337      0.9559470      0.7733661
 Isotopes: H-1,C-12,H-1,H-1,C-12,O-16,N-14,H-1,C-12,H-1,C-12,H-1,H-1,H-1,C-12,O-1
 6,N-14,H-1,C-12,H-1,H-1,H-1
 Standard basis: 6-31G(d) (6D, 7F)
 There are   174 symmetry adapted basis functions of A   symmetry.
 Crude estimate of integral set expansion from redundant integrals=1.000.
 Integral buffers will be    131072 words long.
 Raffenetti 1 integral format.
 Two-electron integral symmetry is turned on.
   174 basis functions      328 primitive gaussians
    39 alpha electrons       39 beta electrons
       nuclear repulsion energy       567.5482596419 Hartrees.
 One-electron integrals computed using PRISM.
 NBasis=   174 RedAO= T  NBF=   174
 NBsUse=   174 1.00D-04 NBFU=   174
 Projected INDO Guess.
 Requested convergence on RMS density matrix=1.00D-08 within  64 cycles.
 Requested convergence on MAX density matrix=1.00D-06.
 Integral accuracy reduced to 1.0D-05 until final iterations.
 Initial convergence to 1.0D-05 achieved.  Increase integral accuracy.
 SCF Done:  E(RHF) =  -492.854802517     A.U. after   15 cycles
             Convg  =    0.9049D-08             -V/T =  2.0015
             S**2   =   0.0000

 **********************************************************************

            Population analysis using the SCF density.

 **********************************************************************

 Alpha  occ. eigenvalues --  -20.53454 -20.51290 -15.59756 -15.57366 -11.35794
 Alpha  occ. eigenvalues --  -11.33476 -11.27961 -11.24751 -11.24304 -11.23651
 Alpha  occ. eigenvalues --   -1.40457  -1.38164  -1.25159  -1.21951  -1.06202
 Alpha  occ. eigenvalues --   -1.00211  -0.95187  -0.88124  -0.81055  -0.77710
 Alpha  occ. eigenvalues --   -0.71128  -0.69406  -0.67829  -0.62556  -0.62372
 Alpha  occ. eigenvalues --   -0.62272  -0.59616  -0.58847  -0.58355  -0.55666
 Alpha  occ. eigenvalues --   -0.54766  -0.54544  -0.54231  -0.51871  -0.49672
 Alpha  occ. eigenvalues --   -0.42798  -0.42546  -0.39217  -0.38043
 Alpha virt. eigenvalues --    0.19076   0.20385   0.20734   0.24940   0.25496
 Alpha virt. eigenvalues --    0.27737   0.28609   0.29586   0.29931   0.31376
 Alpha virt. eigenvalues --    0.32079   0.32924   0.34224   0.34898   0.37586
 Alpha virt. eigenvalues --    0.38985   0.41001   0.43394   0.46422   0.50796
 Alpha virt. eigenvalues --    0.52481   0.57405   0.64320   0.71308   0.71695
 Alpha virt. eigenvalues --    0.73253   0.74117   0.75651   0.75963   0.78292
 Alpha virt. eigenvalues --    0.80633   0.81850   0.83199   0.87580   0.91426
 Alpha virt. eigenvalues --    0.94430   0.95024   0.96309   0.97731   0.99199
 Alpha virt. eigenvalues --    1.01444   1.02691   1.03741   1.08334   1.09818
 Alpha virt. eigenvalues --    1.12117   1.12217   1.13573   1.14212   1.15992
 Alpha virt. eigenvalues --    1.16802   1.17988   1.18485   1.18845   1.21274
 Alpha virt. eigenvalues --    1.22523   1.23234   1.23787   1.25305   1.27710
 Alpha virt. eigenvalues --    1.29557   1.34138   1.37148   1.38190   1.40149
 Alpha virt. eigenvalues --    1.43625   1.50143   1.55027   1.59381   1.59619
 Alpha virt. eigenvalues --    1.62271   1.64974   1.67421   1.73121   1.74106
 Alpha virt. eigenvalues --    1.77744   1.84525   1.92293   1.96208   1.96663
 Alpha virt. eigenvalues --    2.03430   2.06449   2.07879   2.10623   2.11763
 Alpha virt. eigenvalues --    2.14287   2.15366   2.17883   2.21657   2.23581
 Alpha virt. eigenvalues --    2.24886   2.26393   2.30398   2.32799   2.33712
 Alpha virt. eigenvalues --    2.37080   2.39095   2.40502   2.43496   2.49098
 Alpha virt. eigenvalues --    2.53993   2.55117   2.57528   2.62469   2.63383
 Alpha virt. eigenvalues --    2.65254   2.68113   2.70223   2.73256   2.76514
 Alpha virt. eigenvalues --    2.80420   2.85962   2.90919   2.92106   2.99818
 Alpha virt. eigenvalues --    3.04625   3.05503   3.07425   3.11379   3.25788
 Alpha virt. eigenvalues --    3.32126   3.37607   3.40839   3.53914   3.58905
 Alpha virt. eigenvalues --    4.38987   4.41162   4.45469   4.57780   4.64600
 Alpha virt. eigenvalues --    4.66417   4.73303   4.85331   4.93406   5.10510
          Condensed to atoms (all electrons):
              1          2          3          4          5          6
  1  H    0.524745   0.375508  -0.024450  -0.021051  -0.037260   0.002098
  2  C    0.375508   5.268847   0.375985   0.384416   0.371871  -0.071036
  3  H   -0.024450   0.375985   0.488641  -0.017066  -0.026656   0.000232
  4  H   -0.021051   0.384416  -0.017066   0.459294  -0.031603   0.003034
  5  C   -0.037260   0.371871  -0.026656  -0.031603   4.159329   0.619460
  6  O    0.002098  -0.071036   0.000232   0.003034   0.619460   8.124663
  7  N    0.005234  -0.122096   0.000681   0.004105   0.254853  -0.109303
  8  H    0.000378   0.000276   0.000088   0.000024  -0.019081   0.002590
  9  C    0.000128   0.004012  -0.000233  -0.000082  -0.030089   0.007789
 10  H    0.000005  -0.000041   0.000028  -0.000007  -0.000782   0.002419
 11  C   -0.000016  -0.000087   0.000001   0.000001   0.003709   0.000356
 12  H    0.000000   0.000002   0.000000   0.000000  -0.000008   0.000003
 13  H   -0.000002  -0.000007   0.000000   0.000000  -0.000231  -0.000002
 14  H    0.000001  -0.000009   0.000001   0.000000  -0.000120  -0.000004
 15  C   -0.000024  -0.000058  -0.000002   0.000009  -0.003967   0.006567
 16  O    0.000000  -0.000003   0.000000   0.000000  -0.000150  -0.000677
 17  N    0.000007  -0.000020  -0.000001   0.000005   0.002898  -0.002128
 18  H    0.000037  -0.000103   0.000003  -0.000008   0.001185  -0.000514
 19  C    0.000000   0.000000   0.000000   0.000000  -0.000127  -0.000099
 20  H    0.000000   0.000000   0.000000   0.000000   0.000003   0.000001
 21  H    0.000000   0.000000   0.000000   0.000000   0.000005  -0.000003
 22  H    0.000000   0.000001   0.000000   0.000000  -0.000024   0.000211
              7          8          9         10         11         12
  1  H    0.005234   0.000378   0.000128   0.000005  -0.000016   0.000000
  2  C   -0.122096   0.000276   0.004012  -0.000041  -0.000087   0.000002
  3  H    0.000681   0.000088  -0.000233   0.000028   0.000001   0.000000
  4  H    0.004105   0.000024  -0.000082  -0.000007   0.000001   0.000000
  5  C    0.254853  -0.019081  -0.030089  -0.000782   0.003709  -0.000008
  6  O   -0.109303   0.002590   0.007789   0.002419   0.000356   0.000003
  7  N    7.473223   0.324551   0.141256  -0.047247  -0.054823   0.003941
  8  H    0.324551   0.327914  -0.024637   0.000897  -0.004184   0.000033
  9  C    0.141256  -0.024637   5.071558   0.415492   0.339533  -0.036260
 10  H   -0.047247   0.000897   0.415492   0.477133  -0.030701  -0.000728
 11  C   -0.054823  -0.004184   0.339533  -0.030701   5.144653   0.393991
 12  H    0.003941   0.000033  -0.036260  -0.000728   0.393991   0.468231
 13  H   -0.002554   0.002469  -0.037468  -0.004236   0.389056  -0.021815
 14  H   -0.000661   0.000801  -0.036135   0.003872   0.385873  -0.020674
 15  C   -0.051226   0.002890   0.392412  -0.053516  -0.048492  -0.001926
 16  O    0.002244  -0.000052  -0.066788   0.006428  -0.002267   0.002995
 17  N    0.003843  -0.000440  -0.125709   0.004706   0.002646   0.000241
 18  H    0.008212  -0.000073  -0.004986   0.000181   0.000366  -0.000013
 19  C   -0.000113   0.000011   0.004622  -0.000100  -0.000197  -0.000014
 20  H   -0.000015   0.000000   0.000074  -0.000013  -0.000008   0.000005
 21  H   -0.000007   0.000000  -0.000003   0.000000   0.000001   0.000000
 22  H   -0.000018   0.000000  -0.000078   0.000013   0.000000  -0.000001
             13         14         15         16         17         18
  1  H   -0.000002   0.000001  -0.000024   0.000000   0.000007   0.000037
  2  C   -0.000007  -0.000009  -0.000058  -0.000003  -0.000020  -0.000103
  3  H    0.000000   0.000001  -0.000002   0.000000  -0.000001   0.000003
  4  H    0.000000   0.000000   0.000009   0.000000   0.000005  -0.000008
  5  C   -0.000231  -0.000120  -0.003967  -0.000150   0.002898   0.001185
  6  O   -0.000002  -0.000004   0.006567  -0.000677  -0.002128  -0.000514
  7  N   -0.002554  -0.000661  -0.051226   0.002244   0.003843   0.008212
  8  H    0.002469   0.000801   0.002890  -0.000052  -0.000440  -0.000073
  9  C   -0.037468  -0.036135   0.392412  -0.066788  -0.125709  -0.004986
 10  H   -0.004236   0.003872  -0.053516   0.006428   0.004706   0.000181
 11  C    0.389056   0.385873  -0.048492  -0.002267   0.002646   0.000366
 12  H   -0.021815  -0.020674  -0.001926   0.002995   0.000241  -0.000013
 13  H    0.527304  -0.028575   0.005024  -0.000087  -0.000113  -0.000030
 14  H   -0.028575   0.522511  -0.007263   0.000091   0.003384   0.000395
 15  C    0.005024  -0.007263   4.173620   0.602756   0.259804  -0.021017
 16  O   -0.000087   0.000091   0.602756   8.161159  -0.102948   0.002684
 17  N   -0.000113   0.003384   0.259804  -0.102948   7.322817   0.324702
 18  H   -0.000030   0.000395  -0.021017   0.002684   0.324702   0.328492
 19  C    0.000004  -0.000057  -0.031459   0.005703   0.210596  -0.024601
 20  H    0.000000  -0.000010  -0.003424   0.004875  -0.038158   0.002810
 21  H    0.000000  -0.000004   0.004531   0.000359  -0.040000  -0.003826
 22  H    0.000000   0.000003  -0.003178   0.001021  -0.047888   0.000718
             19         20         21         22
  1  H    0.000000   0.000000   0.000000   0.000000
  2  C    0.000000   0.000000   0.000000   0.000001
  3  H    0.000000   0.000000   0.000000   0.000000
  4  H    0.000000   0.000000   0.000000   0.000000
  5  C   -0.000127   0.000003   0.000005  -0.000024
  6  O   -0.000099   0.000001  -0.000003   0.000211
  7  N   -0.000113  -0.000015  -0.000007  -0.000018
  8  H    0.000011   0.000000   0.000000   0.000000
  9  C    0.004622   0.000074  -0.000003  -0.000078
 10  H   -0.000100  -0.000013   0.000000   0.000013
 11  C   -0.000197  -0.000008   0.000001   0.000000
 12  H   -0.000014   0.000005   0.000000  -0.000001
 13  H    0.000004   0.000000   0.000000   0.000000
 14  H   -0.000057  -0.000010  -0.000004   0.000003
 15  C   -0.031459  -0.003424   0.004531  -0.003178
 16  O    0.005703   0.004875   0.000359   0.001021
 17  N    0.210596  -0.038158  -0.040000  -0.047888
 18  H   -0.024601   0.002810  -0.003826   0.000718
 19  C    4.909971   0.402256   0.397257   0.406424
 20  H    0.402256   0.483504  -0.024591  -0.031309
 21  H    0.397257  -0.024591   0.537336  -0.033569
 22  H    0.406424  -0.031309  -0.033569   0.525541
 Total atomic charges:
              1
  1  H    0.174660
  2  C   -0.587458
  3  H    0.202749
  4  H    0.218930
  5  C    0.736785
  6  O   -0.585657
  7  N   -0.834081
  8  H    0.385546
  9  C   -0.014409
 10  H    0.226198
 11  C   -0.519411
 12  H    0.211996
 13  H    0.171262
 14  H    0.176581
 15  C    0.777939
 16  O   -0.617343
 17  N   -0.778244
 18  H    0.385386
 19  C   -0.280075
 20  H    0.203998
 21  H    0.162515
 22  H    0.182135
 Sum of Mulliken charges=   0.00000
 Atomic charges with hydrogens summed into heavy atoms:
              1
  1  H    0.000000
  2  C    0.008881
  3  H    0.000000
  4  H    0.000000
  5  C    0.736785
  6  O   -0.585657
  7  N   -0.448536
  8  H    0.000000
  9  C    0.211789
 10  H    0.000000
 11  C    0.040428
 12  H    0.000000
 13  H    0.000000
 14  H    0.000000
 15  C    0.777939
 16  O   -0.617343
 17  N   -0.392858
 18  H    0.000000
 19  C    0.268573
 20  H    0.000000
 21  H    0.000000
 22  H    0.000000
 Sum of Mulliken charges=   0.00000
 Entering DenBas...
 DenBas was handed  6242190 working-precision words.
 Multipole integrals L=0 to 4 MinM= 0 MaxM= 0.
 Requested accuracy = 0.1000D-12
 PRISM was handed  6080247 working-precision words and  1887 shell-pairs
 Electronic moments (au):
   -78.00000000     1.36123745     0.71164287    -2.07601821
  -961.48936879  -479.89114631  -209.97178299     3.58126734
     1.18321957     2.44201864 -1071.44298106  -562.58689963
   -61.72431430   475.45570671  1109.45083122   199.00248629
   170.74074612    72.89833430   280.00011995   266.36693244
-25262.16587190 -8572.55895392 -1447.44267202   201.85670761
  1106.68638923  -375.02518174   453.37119225    91.64933311
   -36.91544470 -4636.09251381 -2630.08404334 -1210.86666903
 -1023.20071318  -940.10960106   -36.51679865
 Electronic spatial extent (au):  <R**2>=  1651.3523
 Nuclear    moments (au):
    78.00000000     0.00000000     0.00000000     0.00000000
   918.56727074   437.95873384   161.67970561     0.00000000
     0.00007377    -0.00005087  1112.05792022   564.43449684
    51.95435105  -483.68171502 -1117.91624010  -220.73721341
  -161.43746012   -71.40920446  -286.36653115  -264.55228639
 22095.02622064  6925.66321335   768.90724560  -168.65633864
 -1056.36439356   391.55090632  -443.18620523   -84.96107441
    49.98739783  3855.78069354  1907.57176280   818.74635410
  1034.61936456   923.68172765    69.09755500
 Total      moments (au):
     0.00000000     1.36123745     0.71164287    -2.07601821
   -42.92209805   -41.93241247   -48.29207738     3.58126734
     1.18329334     2.44196777    40.61493916     1.84759721
    -9.76996326    -8.22600831    -8.46540888   -21.73472711
     9.30328599     1.48912984    -6.36641120     1.81464604
 -3167.13965126 -1646.89574056  -678.53542642    33.20036896
    50.32199566    16.52572459    10.18498702     6.68825869
    13.07195313  -780.31182027  -722.51228054  -392.12031493
    11.41865138   -16.42787340    32.58075635
 Charge=     0.0000 electrons
 Dipole moment (Debye):
    X=     3.4599    Y=     1.8088    Z=    -5.2768  Tot=     6.5641
 Quadrupole moment (Debye-Ang):
   XX=   -57.7322   YY=   -56.4010   ZZ=   -64.9550
   XY=     4.8170   XZ=     1.5916   YZ=     3.2846
 Octapole moment (Debye-Ang**2):
  XXX=    28.9084  YYY=     1.3151  ZZZ=    -6.9539  XYY=    -5.8550
  XXY=    -6.0254  XXZ=   -15.4701  XZZ=     6.6218  YZZ=     1.0599
  YYZ=    -4.5314  XYZ=     1.2916
 Hexadecapole moment (Debye-Ang**3):
 XXXX= -1192.9063 YYYY=  -620.3049 ZZZZ=  -255.5710 XXXY=    12.5050
 XXXZ=    18.9538 YYYX=     6.2244 YYYZ=     3.8362 ZZZX=     2.5191
 ZZZY=     4.9236 XXYY=  -293.9052 XXZZ=  -272.1350 YYZZ=  -147.6925
 XXYZ=     4.3008 YYXZ=    -6.1876 ZZXY=    12.2716
 N-N= 5.675482596419D+02 E-N=-2.290500457423D+03  KE= 4.921295319692D+02
 Leave Link  601 at Thu Aug  1 13:21:50 2002, MaxMem=    6291456 cpu:       1.1
 Merz-Kollman atomic radii used.
 Atom Element Radius
    1     1    1.20
    2     6    1.50
    3     1    1.20
    4     1    1.20
    5     6    1.50
    6     8    1.40
    7     7    1.50
    8     1    1.20
    9     6    1.50
   10     1    1.20
   11     6    1.50
   12     1    1.20
   13     1    1.20
   14     1    1.20
   15     6    1.50
   16     8    1.40
   17     7    1.50
   18     1    1.20
   19     6    1.50
   20     1    1.20
   21     1    1.20
   22     1    1.20
 Generate VDW surfaces: Layer= 4 Dens= 6 Start= 1.400 Inc= 0.200

 **********************************************************************

            Electrostatic Properties Using The SCF Density

 **********************************************************************

       Atomic Center    1 is at   3.223909 -0.432583 -1.456304
       Atomic Center    2 is at   3.183295 -0.659513 -0.396659
       Atomic Center    3 is at   3.911771 -0.036483  0.113484
       Atomic Center    4 is at   3.444220 -1.695036 -0.233387
       Atomic Center    5 is at   1.814655 -0.401736  0.193709
       Atomic Center    6 is at   1.354351 -1.076212  1.070166
       Atomic Center    7 is at   1.138566  0.655736 -0.332536
       Atomic Center    8 is at   1.618780  1.248954 -0.968907
       Atomic Center    9 is at  -0.081034  1.165699  0.273056
       Atomic Center   10 is at   0.107142  1.433023  1.305681
       Atomic Center   11 is at  -0.559866  2.398252 -0.492001
       Atomic Center   12 is at  -1.465057  2.779575 -0.037113
       Atomic Center   13 is at   0.191050  3.182182 -0.460077
       Atomic Center   14 is at  -0.770277  2.158162 -1.529123
       Atomic Center   15 is at  -1.212221  0.138708  0.350124
       Atomic Center   16 is at  -1.985294  0.178234  1.265566
       Atomic Center   17 is at  -1.365316 -0.672027 -0.720261
       Atomic Center   18 is at  -0.578583 -0.783131 -1.315057
       Atomic Center   19 is at  -2.349128 -1.733614 -0.699947
       Atomic Center   20 is at  -3.296532 -1.337875 -0.365086
       Atomic Center   21 is at  -2.464895 -2.122839 -1.703865
       Atomic Center   22 is at  -2.060946 -2.542866 -0.036230
      ESP Fit Center   23 is at   4.696104  0.376763 -1.456304
      ESP Fit Center   24 is at   4.448576  0.717456 -1.456304
      ESP Fit Center   25 is at   4.124098  0.985888 -1.456304
      ESP Fit Center   26 is at   3.743058  1.165192 -1.456304
      ESP Fit Center   27 is at   3.329397  1.244102 -1.456304
      ESP Fit Center   28 is at   4.846664 -0.432583 -1.891120
      ESP Fit Center   29 is at   4.791370 -0.012583 -1.891120
      ESP Fit Center   30 is at   4.629256  0.378795 -1.891120
      ESP Fit Center   31 is at   4.371370  0.714878 -1.891120
      ESP Fit Center   32 is at   4.035287  0.972764 -1.891120
      ESP Fit Center   33 is at   3.643909  1.134878 -1.891120
      ESP Fit Center   34 is at   3.223909  1.190172 -1.891120
      ESP Fit Center   35 is at   1.656448 -0.852583 -1.891120
      ESP Fit Center   36 is at   1.818562 -1.243961 -1.891120
      ESP Fit Center   37 is at   4.371370 -1.580044 -1.891120
      ESP Fit Center   38 is at   4.629256 -1.243961 -1.891120
      ESP Fit Center   39 is at   4.791370 -0.852583 -1.891120
      ESP Fit Center   40 is at   4.678832 -0.432583 -2.296304
      ESP Fit Center   41 is at   4.614194 -0.003737 -2.296304
      ESP Fit Center   42 is at   4.426023  0.387004 -2.296304
      ESP Fit Center   43 is at   4.131039  0.704921 -2.296304
      ESP Fit Center   44 is at   3.755452  0.921766 -2.296304
      ESP Fit Center   45 is at   3.332636  1.018271 -2.296304
      ESP Fit Center   46 is at   2.900158  0.985862 -2.296304
      ESP Fit Center   47 is at   1.913069  0.198684 -2.296304
      ESP Fit Center   48 is at   1.785237 -0.215738 -2.296304
      ESP Fit Center   49 is at   1.785237 -0.649428 -2.296304
      ESP Fit Center   50 is at   1.913069 -1.063850 -2.296304
      ESP Fit Center   51 is at   2.157375 -1.422182 -2.296304
      ESP Fit Center   52 is at   2.496448 -1.692583 -2.296304
      ESP Fit Center   53 is at   2.900158 -1.851028 -2.296304
      ESP Fit Center   54 is at   3.332636 -1.883437 -2.296304
      ESP Fit Center   55 is at   3.755452 -1.786932 -2.296304
      ESP Fit Center   56 is at   4.131039 -1.570087 -2.296304
      ESP Fit Center   57 is at   4.426023 -1.252170 -2.296304
      ESP Fit Center   58 is at   4.614194 -0.861429 -2.296304
      ESP Fit Center   59 is at   4.411848 -0.432583 -2.644243
      ESP Fit Center   60 is at   4.331630 -0.003450 -2.644243
      ESP Fit Center   61 is at   4.101807  0.367727 -2.644243
      ESP Fit Center   62 is at   3.753419  0.630817 -2.644243
      ESP Fit Center   63 is at   3.333518  0.750289 -2.644243
      ESP Fit Center   64 is at   2.898814  0.710008 -2.644243
      ESP Fit Center   65 is at   2.508016  0.515413 -2.644243
      ESP Fit Center   66 is at   2.213903  0.192787 -2.644243
      ESP Fit Center   67 is at   2.056197 -0.214300 -2.644243
      ESP Fit Center   68 is at   2.056197 -0.650866 -2.644243
      ESP Fit Center   69 is at   2.213903 -1.057952 -2.644243
      ESP Fit Center   70 is at   2.508016 -1.380579 -2.644243
      ESP Fit Center   71 is at   2.898814 -1.575174 -2.644243
      ESP Fit Center   72 is at   3.333518 -1.615455 -2.644243
      ESP Fit Center   73 is at   3.753419 -1.495983 -2.644243
      ESP Fit Center   74 is at   4.101807 -1.232893 -2.644243
      ESP Fit Center   75 is at   4.331630 -0.861716 -2.644243
      ESP Fit Center   76 is at   4.063909 -0.432583 -2.911226
      ESP Fit Center   77 is at   3.951370 -0.012583 -2.911226
      ESP Fit Center   78 is at   3.643909  0.294878 -2.911226
      ESP Fit Center   79 is at   3.223909  0.407417 -2.911226
      ESP Fit Center   80 is at   2.803909  0.294878 -2.911226
      ESP Fit Center   81 is at   2.496448 -0.012583 -2.911226
      ESP Fit Center   82 is at   2.383909 -0.432583 -2.911226
      ESP Fit Center   83 is at   2.496448 -0.852583 -2.911226
      ESP Fit Center   84 is at   2.803909 -1.160044 -2.911226
      ESP Fit Center   85 is at   3.223909 -1.272583 -2.911226
      ESP Fit Center   86 is at   3.643909 -1.160044 -2.911226
      ESP Fit Center   87 is at   3.951370 -0.852583 -2.911226
      ESP Fit Center   88 is at   3.658725 -0.432583 -3.079059
      ESP Fit Center   89 is at   3.441317 -0.056021 -3.079059
      ESP Fit Center   90 is at   3.006501 -0.056021 -3.079059
      ESP Fit Center   91 is at   2.789093 -0.432583 -3.079059
      ESP Fit Center   92 is at   3.006501 -0.809145 -3.079059
      ESP Fit Center   93 is at   3.441317 -0.809145 -3.079059
      ESP Fit Center   94 is at   3.223909 -0.432583 -3.136304
      ESP Fit Center   95 is at   3.592985 -0.659513  1.662990
      ESP Fit Center   96 is at   3.388140 -1.014315  1.662990
      ESP Fit Center   97 is at   3.585113 -1.355481  1.543488
      ESP Fit Center   98 is at   3.879264 -1.061331  1.543488
      ESP Fit Center   99 is at   4.045495 -1.445512  1.349427
      ESP Fit Center  100 is at   5.123442 -1.463148 -0.396659
      ESP Fit Center  101 is at   5.242944 -1.069203 -0.396659
      ESP Fit Center  102 is at   5.242944 -0.659513 -0.806348
      ESP Fit Center  103 is at   3.495183  1.376385 -0.806348
      ESP Fit Center  104 is at   1.922572 -2.288233 -0.806348
      ESP Fit Center  105 is at   5.076026 -1.471748 -0.806348
      ESP Fit Center  106 is at   5.200783 -1.074117 -0.806348
      ESP Fit Center  107 is at   5.123442 -0.659513 -1.200294
      ESP Fit Center  108 is at   5.078083 -0.242439 -1.200294
      ESP Fit Center  109 is at   4.944125  0.155134 -1.200294
      ESP Fit Center  110 is at   4.092076  1.054630 -1.200294
      ESP Fit Center  111 is at   3.702339  1.209916 -1.200294
      ESP Fit Center  112 is at   3.288333  1.277789 -1.200294
      ESP Fit Center  113 is at   1.774757 -1.993751 -1.200294
      ESP Fit Center  114 is at   2.094510 -2.265351 -1.200294
      ESP Fit Center  115 is at   4.944125 -1.474160 -1.200294
      ESP Fit Center  116 is at   5.078083 -1.076587 -1.200294
      ESP Fit Center  117 is at   4.929381 -0.659513 -1.563356
      ESP Fit Center  118 is at   1.876331 -1.817382 -1.563356
      ESP Fit Center  119 is at   2.191405 -2.096514 -1.563356
      ESP Fit Center  120 is at   2.564124 -2.292132 -1.563356
      ESP Fit Center  121 is at   4.490259 -1.817382 -1.563356
      ESP Fit Center  122 is at   4.729378 -1.470960 -1.563356
      ESP Fit Center  123 is at   4.878643 -1.077379 -1.563356
      ESP Fit Center  124 is at   1.934097 -1.462324 -1.881583
      ESP Fit Center  125 is at   2.210877 -1.781744 -1.881583
      ESP Fit Center  126 is at   2.566435 -2.010248 -1.881583
      ESP Fit Center  127 is at   2.971968 -2.129323 -1.881583
      ESP Fit Center  128 is at   3.394622 -2.129323 -1.881583
      ESP Fit Center  129 is at   3.800155 -2.010248 -1.881583
      ESP Fit Center  130 is at   4.155714 -1.781744 -1.881583
      ESP Fit Center  131 is at   3.911771 -0.036483  1.793484
      ESP Fit Center  132 is at   4.346587 -0.036483  1.736240
      ESP Fit Center  133 is at   4.129179  0.340079  1.736240
      ESP Fit Center  134 is at   3.694363  0.340079  1.736240
      ESP Fit Center  135 is at   3.476955 -0.036483  1.736240
      ESP Fit Center  136 is at   3.694363 -0.413045  1.736240
      ESP Fit Center  137 is at   4.129179 -0.413045  1.736240
      ESP Fit Center  138 is at   4.751771 -0.036483  1.568407
      ESP Fit Center  139 is at   4.639232  0.383517  1.568407
      ESP Fit Center  140 is at   4.331771  0.690978  1.568407
      ESP Fit Center  141 is at   3.911771  0.803517  1.568407
      ESP Fit Center  142 is at   3.491771  0.690978  1.568407
      ESP Fit Center  143 is at   3.911771 -0.876483  1.568407
      ESP Fit Center  144 is at   4.331771 -0.763944  1.568407
      ESP Fit Center  145 is at   4.639232 -0.456483  1.568407
      ESP Fit Center  146 is at   5.099710 -0.036483  1.301424
      ESP Fit Center  147 is at   5.019492  0.392650  1.301424
      ESP Fit Center  148 is at   4.789669  0.763827  1.301424
      ESP Fit Center  149 is at   4.441281  1.026917  1.301424
      ESP Fit Center  150 is at   4.021380  1.146389  1.301424
      ESP Fit Center  151 is at   3.586676  1.106108  1.301424
      ESP Fit Center  152 is at   3.195878  0.911513  1.301424
      ESP Fit Center  153 is at   4.441281 -1.099883  1.301424
      ESP Fit Center  154 is at   4.789669 -0.836793  1.301424
      ESP Fit Center  155 is at   5.019492 -0.465616  1.301424
      ESP Fit Center  156 is at   5.366694 -0.036483  0.953484
      ESP Fit Center  157 is at   5.302056  0.392363  0.953484
      ESP Fit Center  158 is at   5.113885  0.783104  0.953484
      ESP Fit Center  159 is at   4.818901  1.101021  0.953484
      ESP Fit Center  160 is at   4.443314  1.317866  0.953484
      ESP Fit Center  161 is at   4.020498  1.414371  0.953484
      ESP Fit Center  162 is at   3.588020  1.381962  0.953484
      ESP Fit Center  163 is at   3.184310  1.223517  0.953484
      ESP Fit Center  164 is at   4.818901 -1.173987  0.953484
      ESP Fit Center  165 is at   5.113885 -0.856070  0.953484
      ESP Fit Center  166 is at   5.302056 -0.465329  0.953484
      ESP Fit Center  167 is at   5.534526 -0.036483  0.548300
      ESP Fit Center  168 is at   5.479232  0.383517  0.548300
      ESP Fit Center  169 is at   5.317118  0.774895  0.548300
      ESP Fit Center  170 is at   5.059232  1.110978  0.548300
      ESP Fit Center  171 is at   4.723149  1.368864  0.548300
      ESP Fit Center  172 is at   4.331771  1.530978  0.548300
      ESP Fit Center  173 is at   3.911771  1.586272  0.548300
      ESP Fit Center  174 is at   3.491771  1.530978  0.548300
      ESP Fit Center  175 is at   3.100393  1.368864  0.548300
      ESP Fit Center  176 is at   5.059232 -1.183944  0.548300
      ESP Fit Center  177 is at   5.317118 -0.847861  0.548300
      ESP Fit Center  178 is at   5.479232 -0.456483  0.548300
      ESP Fit Center  179 is at   5.591771 -0.036483  0.113484
      ESP Fit Center  180 is at   5.538991  0.381316  0.113484
      ESP Fit Center  181 is at   5.383966  0.772863  0.113484
      ESP Fit Center  182 is at   5.136438  1.113556  0.113484
      ESP Fit Center  183 is at   4.811960  1.381988  0.113484
      ESP Fit Center  184 is at   4.430920  1.561292  0.113484
      ESP Fit Center  185 is at   4.017259  1.640202  0.113484
      ESP Fit Center  186 is at   3.596970  1.613760  0.113484
      ESP Fit Center  187 is at   3.196462  1.483626  0.113484
      ESP Fit Center  188 is at   5.383966 -0.845829  0.113484
      ESP Fit Center  189 is at   5.538991 -0.454282  0.113484
      ESP Fit Center  190 is at   5.534526 -0.036483 -0.321332
      ESP Fit Center  191 is at   5.479232  0.383517 -0.321332
      ESP Fit Center  192 is at   5.317118  0.774895 -0.321332
      ESP Fit Center  193 is at   5.059232  1.110978 -0.321332
      ESP Fit Center  194 is at   4.723149  1.368864 -0.321332
      ESP Fit Center  195 is at   4.331771  1.530978 -0.321332
      ESP Fit Center  196 is at   3.911771  1.586272 -0.321332
      ESP Fit Center  197 is at   3.491771  1.530978 -0.321332
      ESP Fit Center  198 is at   5.317118 -0.847861 -0.321332
      ESP Fit Center  199 is at   5.479232 -0.456483 -0.321332
      ESP Fit Center  200 is at   5.366694 -0.036483 -0.726516
      ESP Fit Center  201 is at   5.302056  0.392363 -0.726516
      ESP Fit Center  202 is at   5.113885  0.783104 -0.726516
      ESP Fit Center  203 is at   4.818901  1.101021 -0.726516
      ESP Fit Center  204 is at   4.443314  1.317866 -0.726516
      ESP Fit Center  205 is at   4.020498  1.414371 -0.726516
      ESP Fit Center  206 is at   3.588020  1.381962 -0.726516
      ESP Fit Center  207 is at   5.302056 -0.465329 -0.726516
      ESP Fit Center  208 is at   5.099710 -0.036483 -1.074455
      ESP Fit Center  209 is at   5.019492  0.392650 -1.074455
      ESP Fit Center  210 is at   4.789669  0.763827 -1.074455
      ESP Fit Center  211 is at   4.441281  1.026917 -1.074455
      ESP Fit Center  212 is at   4.021380  1.146389 -1.074455
      ESP Fit Center  213 is at   3.444220 -1.695036  1.446613
      ESP Fit Center  214 is at   3.879036 -1.695036  1.389369
      ESP Fit Center  215 is at   3.226812 -2.071598  1.389369
      ESP Fit Center  216 is at   3.661628 -2.071598  1.389369
      ESP Fit Center  217 is at   4.284220 -1.695036  1.221536
      ESP Fit Center  218 is at   3.024220 -2.422497  1.221536
      ESP Fit Center  219 is at   3.444220 -2.535036  1.221536
      ESP Fit Center  220 is at   3.864220 -2.422497  1.221536
      ESP Fit Center  221 is at   4.171681 -2.115036  1.221536
      ESP Fit Center  222 is at   4.632159 -1.695036  0.954553
      ESP Fit Center  223 is at   2.728327 -2.643032  0.954553
      ESP Fit Center  224 is at   3.119125 -2.837627  0.954553
      ESP Fit Center  225 is at   3.553829 -2.877908  0.954553
      ESP Fit Center  226 is at   3.973730 -2.758436  0.954553
      ESP Fit Center  227 is at   4.322118 -2.495346  0.954553
      ESP Fit Center  228 is at   4.551941 -2.124169  0.954553
      ESP Fit Center  229 is at   4.899143 -1.695036  0.606613
      ESP Fit Center  230 is at   2.377686 -2.684635  0.606613
      ESP Fit Center  231 is at   2.716759 -2.955036  0.606613
      ESP Fit Center  232 is at   3.120469 -3.113481  0.606613
      ESP Fit Center  233 is at   3.552947 -3.145890  0.606613
      ESP Fit Center  234 is at   3.975763 -3.049385  0.606613
      ESP Fit Center  235 is at   4.351350 -2.832540  0.606613
      ESP Fit Center  236 is at   4.646334 -2.514623  0.606613
      ESP Fit Center  237 is at   4.834505 -2.123882  0.606613
      ESP Fit Center  238 is at   5.066975 -1.695036  0.201429
      ESP Fit Center  239 is at   2.296759 -2.842497  0.201429
      ESP Fit Center  240 is at   2.632842 -3.100383  0.201429
      ESP Fit Center  241 is at   3.024220 -3.262497  0.201429
      ESP Fit Center  242 is at   3.444220 -3.317791  0.201429
      ESP Fit Center  243 is at   3.864220 -3.262497  0.201429
      ESP Fit Center  244 is at   4.255598 -3.100383  0.201429
      ESP Fit Center  245 is at   4.591681 -2.842497  0.201429
      ESP Fit Center  246 is at   4.849567 -2.506414  0.201429
      ESP Fit Center  247 is at   5.011681 -2.115036  0.201429
      ESP Fit Center  248 is at   5.124220 -1.695036 -0.233387
      ESP Fit Center  249 is at   2.085072 -2.682515 -0.233387
      ESP Fit Center  250 is at   2.373348 -2.989498 -0.233387
      ESP Fit Center  251 is at   2.728911 -3.215145 -0.233387
      ESP Fit Center  252 is at   3.129419 -3.345279 -0.233387
      ESP Fit Center  253 is at   3.549708 -3.371721 -0.233387
      ESP Fit Center  254 is at   3.963369 -3.292811 -0.233387
      ESP Fit Center  255 is at   4.344409 -3.113507 -0.233387
      ESP Fit Center  256 is at   4.668887 -2.845075 -0.233387
      ESP Fit Center  257 is at   4.916415 -2.504382 -0.233387
      ESP Fit Center  258 is at   5.071440 -2.112835 -0.233387
      ESP Fit Center  259 is at   5.066975 -1.695036 -0.668203
      ESP Fit Center  260 is at   2.038873 -2.506414 -0.668203
      ESP Fit Center  261 is at   2.296759 -2.842497 -0.668203
      ESP Fit Center  262 is at   2.632842 -3.100383 -0.668203
      ESP Fit Center  263 is at   3.024220 -3.262497 -0.668203
      ESP Fit Center  264 is at   3.444220 -3.317791 -0.668203
      ESP Fit Center  265 is at   3.864220 -3.262497 -0.668203
      ESP Fit Center  266 is at   4.255598 -3.100383 -0.668203
      ESP Fit Center  267 is at   4.591681 -2.842497 -0.668203
      ESP Fit Center  268 is at   4.849567 -2.506414 -0.668203
      ESP Fit Center  269 is at   5.011681 -2.115036 -0.668203
      ESP Fit Center  270 is at   4.899143 -1.695036 -1.073387
      ESP Fit Center  271 is at   2.377686 -2.684635 -1.073387
      ESP Fit Center  272 is at   2.716759 -2.955036 -1.073387
      ESP Fit Center  273 is at   3.120469 -3.113481 -1.073387
      ESP Fit Center  274 is at   3.552947 -3.145890 -1.073387
      ESP Fit Center  275 is at   3.975763 -3.049385 -1.073387
      ESP Fit Center  276 is at   4.351350 -2.832540 -1.073387
      ESP Fit Center  277 is at   4.646334 -2.514623 -1.073387
      ESP Fit Center  278 is at   4.834505 -2.123882 -1.073387
      ESP Fit Center  279 is at   2.728327 -2.643032 -1.421326
      ESP Fit Center  280 is at   3.119125 -2.837627 -1.421326
      ESP Fit Center  281 is at   3.553829 -2.877908 -1.421326
      ESP Fit Center  282 is at   3.973730 -2.758436 -1.421326
      ESP Fit Center  283 is at   4.322118 -2.495346 -1.421326
      ESP Fit Center  284 is at   4.551941 -2.124169 -1.421326
      ESP Fit Center  285 is at   3.024220 -2.422497 -1.688309
      ESP Fit Center  286 is at   3.444220 -2.535036 -1.688309
      ESP Fit Center  287 is at   3.864220 -2.422497 -1.688309
      ESP Fit Center  288 is at   4.171681 -2.115036 -1.688309
      ESP Fit Center  289 is at   2.981353 -0.401736  1.939795
      ESP Fit Center  290 is at   2.902568  0.019724  1.939795
      ESP Fit Center  291 is at   2.676855  0.384263  1.939795
      ESP Fit Center  292 is at   2.334697  0.642649  1.939795
      ESP Fit Center  293 is at   1.922304  0.759985  1.939795
      ESP Fit Center  294 is at   1.495373  0.720424  1.939795
      ESP Fit Center  295 is at   3.239429  0.016616  1.678633
      ESP Fit Center  296 is at   3.063853  0.401075  1.678633
      ESP Fit Center  297 is at   2.787074  0.720495  1.678633
      ESP Fit Center  298 is at   2.431515  0.948999  1.678633
      ESP Fit Center  299 is at   2.025982  1.068074  1.678633
      ESP Fit Center  300 is at   2.806545  1.035265  1.360407
      ESP Fit Center  301 is at   2.433826  1.230883  1.360407
      ESP Fit Center  302 is at   2.723436  1.312407  0.997344
      ESP Fit Center  303 is at   2.904135  1.346173  0.603399
      ESP Fit Center  304 is at   0.725870 -2.007574 -0.609926
      ESP Fit Center  305 is at   1.096533 -2.204087 -0.609926
      ESP Fit Center  306 is at   1.500774 -2.316324 -0.609926
      ESP Fit Center  307 is at   1.919693 -2.339038 -0.609926
      ESP Fit Center  308 is at   0.822765 -1.838737 -0.972988
      ESP Fit Center  309 is at   1.195484 -2.034355 -0.972988
      ESP Fit Center  310 is at   1.604188 -2.135091 -0.972988
      ESP Fit Center  311 is at   1.197795 -1.752471 -1.291215
      ESP Fit Center  312 is at   1.603328 -1.871546 -1.291215
      ESP Fit Center  313 is at   1.111563 -1.332781 -1.552377
      ESP Fit Center  314 is at   1.495373 -1.523896 -1.552377
      ESP Fit Center  315 is at   1.412837 -1.097704 -1.746438
      ESP Fit Center  316 is at   1.609810 -0.756538 -1.865940
      ESP Fit Center  317 is at   1.354351 -1.076212  3.030166
      ESP Fit Center  318 is at   1.761858 -1.076212  2.987335
      ESP Fit Center  319 is at   1.558105 -0.723301  2.987335
      ESP Fit Center  320 is at   1.150598 -0.723301  2.987335
      ESP Fit Center  321 is at   0.946844 -1.076212  2.987335
      ESP Fit Center  322 is at   1.150598 -1.429123  2.987335
      ESP Fit Center  323 is at   1.558105 -1.429123  2.987335
      ESP Fit Center  324 is at   2.151555 -1.076212  2.860715
      ESP Fit Center  325 is at   2.044750 -0.677610  2.860715
      ESP Fit Center  326 is at   1.752953 -0.385813  2.860715
      ESP Fit Center  327 is at   1.354351 -0.279008  2.860715
      ESP Fit Center  328 is at   0.955749 -0.385813  2.860715
      ESP Fit Center  329 is at   0.663952 -0.677610  2.860715
      ESP Fit Center  330 is at   0.557147 -1.076212  2.860715
      ESP Fit Center  331 is at   0.663952 -1.474814  2.860715
      ESP Fit Center  332 is at   0.955749 -1.766611  2.860715
      ESP Fit Center  333 is at   1.354351 -1.873416  2.860715
      ESP Fit Center  334 is at   1.752953 -1.766611  2.860715
      ESP Fit Center  335 is at   2.044750 -1.474814  2.860715
      ESP Fit Center  336 is at   2.506410 -1.076212  2.655840
      ESP Fit Center  337 is at   2.428614 -0.660040  2.655840
      ESP Fit Center  338 is at   2.205733 -0.300075  2.655840
      ESP Fit Center  339 is at   1.867868 -0.044931  2.655840
      ESP Fit Center  340 is at   1.460650  0.070933  2.655840
      ESP Fit Center  341 is at   1.039075  0.031868  2.655840
      ESP Fit Center  342 is at   0.660080 -0.156849  2.655840
      ESP Fit Center  343 is at   0.374851 -0.469731  2.655840
      ESP Fit Center  344 is at   0.221908 -0.864522  2.655840
      ESP Fit Center  345 is at   0.221908 -1.287902  2.655840
      ESP Fit Center  346 is at   0.374851 -1.682693  2.655840
      ESP Fit Center  347 is at   0.660080 -1.995575  2.655840
      ESP Fit Center  348 is at   1.039075 -2.184292  2.655840
      ESP Fit Center  349 is at   1.460650 -2.223357  2.655840
      ESP Fit Center  350 is at   1.867868 -2.107493  2.655840
      ESP Fit Center  351 is at   2.205733 -1.852349  2.655840
      ESP Fit Center  352 is at   2.428614 -1.492384  2.655840
      ESP Fit Center  353 is at   2.810915 -1.076212  2.381662
      ESP Fit Center  354 is at   2.751914 -0.665851  2.381662
      ESP Fit Center  355 is at   2.579691 -0.288734  2.381662
      ESP Fit Center  356 is at   2.308198  0.024586  2.381662
      ESP Fit Center  357 is at   1.959430  0.248725  2.381662
      ESP Fit Center  358 is at   1.561642  0.365526  2.381662
      ESP Fit Center  359 is at   1.147060  0.365526  2.381662
      ESP Fit Center  360 is at   0.749273  0.248725  2.381662
      ESP Fit Center  361 is at   0.400505  0.024586  2.381662
      ESP Fit Center  362 is at   0.129012 -0.288734  2.381662
      ESP Fit Center  363 is at  -0.043212 -0.665851  2.381662
      ESP Fit Center  364 is at  -0.102213 -1.076212  2.381662
      ESP Fit Center  365 is at  -0.043212 -1.486573  2.381662
      ESP Fit Center  366 is at   0.129012 -1.863690  2.381662
      ESP Fit Center  367 is at   0.400505 -2.177009  2.381662
      ESP Fit Center  368 is at   0.749273 -2.401149  2.381662
      ESP Fit Center  369 is at   1.147060 -2.517950  2.381662
      ESP Fit Center  370 is at   1.561642 -2.517950  2.381662
      ESP Fit Center  371 is at   1.959430 -2.401149  2.381662
      ESP Fit Center  372 is at   2.308198 -2.177009  2.381662
      ESP Fit Center  373 is at   2.579691 -1.863690  2.381662
      ESP Fit Center  374 is at   2.751914 -1.486573  2.381662
      ESP Fit Center  375 is at   3.051761 -1.076212  2.050166
      ESP Fit Center  376 is at   2.998434 -0.654083  2.050166
      ESP Fit Center  377 is at   2.841803 -0.258479  2.050166
      ESP Fit Center  378 is at   1.460932  0.617848  2.050166
      ESP Fit Center  379 is at  -0.329674 -0.863470  2.050166
      ESP Fit Center  380 is at  -0.329674 -1.288954  2.050166
      ESP Fit Center  381 is at  -0.223861 -1.701070  2.050166
      ESP Fit Center  382 is at  -0.018882 -2.073924  2.050166
      ESP Fit Center  383 is at   0.272381 -2.384089  2.050166
      ESP Fit Center  384 is at   0.631629 -2.612074  2.050166
      ESP Fit Center  385 is at   1.036288 -2.743556  2.050166
      ESP Fit Center  386 is at   1.460932 -2.770272  2.050166
      ESP Fit Center  387 is at   1.878880 -2.690545  2.050166
      ESP Fit Center  388 is at   2.263869 -2.509382  2.050166
      ESP Fit Center  389 is at   2.591710 -2.238169  2.050166
      ESP Fit Center  390 is at   2.841803 -1.893945  2.050166
      ESP Fit Center  391 is at   2.998434 -1.498341  2.050166
      ESP Fit Center  392 is at   3.218422 -1.076212  1.675840
      ESP Fit Center  393 is at  -0.462984 -1.491007  1.675840
      ESP Fit Center  394 is at  -0.325119 -1.885002  1.675840
      ESP Fit Center  395 is at  -0.103038 -2.238441  1.675840
      ESP Fit Center  396 is at   0.192122 -2.533601  1.675840
      ESP Fit Center  397 is at   0.545561 -2.755682  1.675840
      ESP Fit Center  398 is at   0.939556 -2.893547  1.675840
      ESP Fit Center  399 is at   1.354351 -2.940283  1.675840
      ESP Fit Center  400 is at   1.769146 -2.893547  1.675840
      ESP Fit Center  401 is at   2.163141 -2.755682  1.675840
      ESP Fit Center  402 is at   2.516580 -2.533601  1.675840
      ESP Fit Center  403 is at   2.811740 -2.238441  1.675840
      ESP Fit Center  404 is at   3.033821 -1.885002  1.675840
      ESP Fit Center  405 is at   3.171686 -1.491007  1.675840
      ESP Fit Center  406 is at  -0.492874 -1.698615  1.275042
      ESP Fit Center  407 is at  -0.315889 -2.081162  1.275042
      ESP Fit Center  408 is at  -0.060805 -2.416719  1.275042
      ESP Fit Center  409 is at   0.260450 -2.689595  1.275042
      ESP Fit Center  410 is at   0.632855 -2.887032  1.275042
      ESP Fit Center  411 is at   1.038995 -2.999796  1.275042
      ESP Fit Center  412 is at   1.459882 -3.022616  1.275042
      ESP Fit Center  413 is at   1.875834 -2.954424  1.275042
      ESP Fit Center  414 is at   2.267402 -2.798409  1.275042
      ESP Fit Center  415 is at   2.616277 -2.561866  1.275042
      ESP Fit Center  416 is at   2.906146 -2.255856  1.275042
      ESP Fit Center  417 is at  -0.315889 -2.081162  0.865290
      ESP Fit Center  418 is at  -0.060805 -2.416719  0.865290
      ESP Fit Center  419 is at   0.260450 -2.689595  0.865290
      ESP Fit Center  420 is at   0.632855 -2.887032  0.865290
      ESP Fit Center  421 is at   1.038995 -2.999796  0.865290
      ESP Fit Center  422 is at   1.459882 -3.022616  0.865290
      ESP Fit Center  423 is at   1.875834 -2.954424  0.865290
      ESP Fit Center  424 is at   2.267402 -2.798409  0.865290
      ESP Fit Center  425 is at  -0.103038 -2.238441  0.464493
      ESP Fit Center  426 is at   0.192122 -2.533601  0.464493
      ESP Fit Center  427 is at   0.545561 -2.755682  0.464493
      ESP Fit Center  428 is at   0.939556 -2.893547  0.464493
      ESP Fit Center  429 is at   1.354351 -2.940283  0.464493
      ESP Fit Center  430 is at   1.769146 -2.893547  0.464493
      ESP Fit Center  431 is at   2.163141 -2.755682  0.464493
      ESP Fit Center  432 is at  -0.018882 -2.073924  0.090166
      ESP Fit Center  433 is at   0.272381 -2.384089  0.090166
      ESP Fit Center  434 is at   0.631629 -2.612074  0.090166
      ESP Fit Center  435 is at   1.036288 -2.743556  0.090166
      ESP Fit Center  436 is at   1.460932 -2.770272  0.090166
      ESP Fit Center  437 is at   1.878880 -2.690545  0.090166
      ESP Fit Center  438 is at   0.400505 -2.177009 -0.241330
      ESP Fit Center  439 is at   0.749273 -2.401149 -0.241330
      ESP Fit Center  440 is at   1.147060 -2.517950 -0.241330
      ESP Fit Center  441 is at   1.561642 -2.517950 -0.241330
      ESP Fit Center  442 is at   2.000766  1.441735  1.413550
      ESP Fit Center  443 is at   2.387764  1.458547  1.152388
      ESP Fit Center  444 is at   2.110985  1.777967  1.152388
      ESP Fit Center  445 is at   1.755426  2.006471  1.152388
      ESP Fit Center  446 is at   2.684649  1.467183  0.834162
      ESP Fit Center  447 is at   2.445530  1.813605  0.834162
      ESP Fit Center  448 is at   2.130456  2.092737  0.834162
      ESP Fit Center  449 is at   1.757737  2.288355  0.834162
      ESP Fit Center  450 is at   2.899396  1.470383  0.471099
      ESP Fit Center  451 is at   2.683104  1.829863  0.471099
      ESP Fit Center  452 is at   2.394591  2.134442  0.471099
      ESP Fit Center  453 is at   2.047347  2.369879  0.471099
      ESP Fit Center  454 is at   1.657610  2.525165  0.471099
      ESP Fit Center  455 is at   3.031297  1.467971  0.077154
      ESP Fit Center  456 is at   2.829051  1.832348  0.077154
      ESP Fit Center  457 is at   1.853893  2.587176  0.077154
      ESP Fit Center  458 is at   1.349893 -0.814074 -1.817460
      ESP Fit Center  459 is at   1.246215 -0.505985 -2.078622
      ESP Fit Center  460 is at   1.658608 -0.388649 -2.078622
      ESP Fit Center  461 is at   0.442598  1.057554 -2.272683
      ESP Fit Center  462 is at   0.334931  0.655736 -2.272683
      ESP Fit Center  463 is at   0.442598  0.253918 -2.272683
      ESP Fit Center  464 is at   0.736748 -0.040232 -2.272683
      ESP Fit Center  465 is at   1.138566 -0.147899 -2.272683
      ESP Fit Center  466 is at   1.540384 -0.040232 -2.272683
      ESP Fit Center  467 is at   0.728876  0.655736 -2.392185
      ESP Fit Center  468 is at   0.933721  0.300934 -2.392185
      ESP Fit Center  469 is at   1.343411  0.300934 -2.392185
      ESP Fit Center  470 is at   3.009065  1.677800 -0.128907
      ESP Fit Center  471 is at   2.820894  2.068541 -0.128907
      ESP Fit Center  472 is at   2.525910  2.386458 -0.128907
      ESP Fit Center  473 is at   2.150323  2.603303 -0.128907
      ESP Fit Center  474 is at   3.186241  1.668954 -0.534091
      ESP Fit Center  475 is at   3.024127  2.060332 -0.534091
      ESP Fit Center  476 is at   2.766241  2.396415 -0.534091
      ESP Fit Center  477 is at   2.430158  2.654301 -0.534091
      ESP Fit Center  478 is at   2.038780  2.816415 -0.534091
      ESP Fit Center  479 is at   3.246000  1.666753 -0.968907
      ESP Fit Center  480 is at   3.090975  2.058300 -0.968907
      ESP Fit Center  481 is at   2.843447  2.398993 -0.968907
      ESP Fit Center  482 is at   2.518969  2.667425 -0.968907
      ESP Fit Center  483 is at   2.137929  2.846729 -0.968907
      ESP Fit Center  484 is at   3.241535  1.248954 -1.403723
      ESP Fit Center  485 is at   3.186241  1.668954 -1.403723
      ESP Fit Center  486 is at   3.024127  2.060332 -1.403723
      ESP Fit Center  487 is at   2.766241  2.396415 -1.403723
      ESP Fit Center  488 is at   2.430158  2.654301 -1.403723
      ESP Fit Center  489 is at   2.038780  2.816415 -1.403723
      ESP Fit Center  490 is at   1.618780  2.871709 -1.403723
      ESP Fit Center  491 is at   3.073703  1.248954 -1.808907
      ESP Fit Center  492 is at   3.009065  1.677800 -1.808907
      ESP Fit Center  493 is at   2.820894  2.068541 -1.808907
      ESP Fit Center  494 is at   2.525910  2.386458 -1.808907
      ESP Fit Center  495 is at   2.150323  2.603303 -1.808907
      ESP Fit Center  496 is at   1.727507  2.699808 -1.808907
      ESP Fit Center  497 is at   1.295029  2.667399 -1.808907
      ESP Fit Center  498 is at   2.806719  1.248954 -2.156846
      ESP Fit Center  499 is at   2.726501  1.678087 -2.156846
      ESP Fit Center  500 is at   2.496678  2.049264 -2.156846
      ESP Fit Center  501 is at   2.148290  2.312354 -2.156846
      ESP Fit Center  502 is at   1.728389  2.431826 -2.156846
      ESP Fit Center  503 is at   1.293685  2.391545 -2.156846
      ESP Fit Center  504 is at   0.902887  2.196950 -2.156846
      ESP Fit Center  505 is at   2.458780  1.248954 -2.423829
      ESP Fit Center  506 is at   2.346241  1.668954 -2.423829
      ESP Fit Center  507 is at   2.038780  1.976415 -2.423829
      ESP Fit Center  508 is at   1.618780  2.088954 -2.423829
      ESP Fit Center  509 is at   1.198780  1.976415 -2.423829
      ESP Fit Center  510 is at   0.891319  1.668954 -2.423829
      ESP Fit Center  511 is at   0.778780  1.248954 -2.423829
      ESP Fit Center  512 is at   0.891319  0.828954 -2.423829
      ESP Fit Center  513 is at   1.618780  0.408954 -2.423829
      ESP Fit Center  514 is at   2.038780  0.521493 -2.423829
      ESP Fit Center  515 is at   2.346241  0.828954 -2.423829
      ESP Fit Center  516 is at   2.053596  1.248954 -2.591662
      ESP Fit Center  517 is at   1.836188  1.625516 -2.591662
      ESP Fit Center  518 is at   1.401372  1.625516 -2.591662
      ESP Fit Center  519 is at   1.183964  1.248954 -2.591662
      ESP Fit Center  520 is at   1.401372  0.872392 -2.591662
      ESP Fit Center  521 is at   1.836188  0.872392 -2.591662
      ESP Fit Center  522 is at   1.618780  1.248954 -2.648907
      ESP Fit Center  523 is at   1.337996  2.658518  0.682746
      ESP Fit Center  524 is at   0.107142  1.433023  2.985681
      ESP Fit Center  525 is at   0.541958  1.433023  2.928437
      ESP Fit Center  526 is at   0.324550  1.809585  2.928437
      ESP Fit Center  527 is at  -0.110266  1.809585  2.928437
      ESP Fit Center  528 is at  -0.327674  1.433023  2.928437
      ESP Fit Center  529 is at  -0.110266  1.056461  2.928437
      ESP Fit Center  530 is at   0.324550  1.056461  2.928437
      ESP Fit Center  531 is at   0.947142  1.433023  2.760604
      ESP Fit Center  532 is at   0.834603  1.853023  2.760604
      ESP Fit Center  533 is at   0.527142  2.160484  2.760604
      ESP Fit Center  534 is at   0.107142  2.273023  2.760604
      ESP Fit Center  535 is at  -0.312858  2.160484  2.760604
      ESP Fit Center  536 is at  -0.620319  1.853023  2.760604
      ESP Fit Center  537 is at  -0.732858  1.433023  2.760604
      ESP Fit Center  538 is at  -0.620319  1.013023  2.760604
      ESP Fit Center  539 is at  -0.312858  0.705562  2.760604
      ESP Fit Center  540 is at   0.107142  0.593023  2.760604
      ESP Fit Center  541 is at   0.527142  0.705562  2.760604
      ESP Fit Center  542 is at   0.834603  1.013023  2.760604
      ESP Fit Center  543 is at   1.295081  1.433023  2.493621
      ESP Fit Center  544 is at   1.214863  1.862156  2.493621
      ESP Fit Center  545 is at   0.985040  2.233333  2.493621
      ESP Fit Center  546 is at   0.636652  2.496423  2.493621
      ESP Fit Center  547 is at   0.216751  2.615895  2.493621
      ESP Fit Center  548 is at  -0.217953  2.575614  2.493621
      ESP Fit Center  549 is at  -0.608751  2.381019  2.493621
      ESP Fit Center  550 is at  -0.902864  2.058393  2.493621
      ESP Fit Center  551 is at  -1.060570  1.651306  2.493621
      ESP Fit Center  552 is at  -0.217953  0.290432  2.493621
      ESP Fit Center  553 is at   0.216751  0.250151  2.493621
      ESP Fit Center  554 is at   0.636652  0.369623  2.493621
      ESP Fit Center  555 is at   0.985040  0.632713  2.493621
      ESP Fit Center  556 is at   1.214863  1.003890  2.493621
      ESP Fit Center  557 is at   1.562065  1.433023  2.145681
      ESP Fit Center  558 is at   1.497427  1.861869  2.145681
      ESP Fit Center  559 is at   1.309256  2.252610  2.145681
      ESP Fit Center  560 is at   1.014272  2.570527  2.145681
      ESP Fit Center  561 is at   0.638685  2.787372  2.145681
      ESP Fit Center  562 is at   0.215869  2.883877  2.145681
      ESP Fit Center  563 is at  -0.216609  2.851468  2.145681
      ESP Fit Center  564 is at  -0.620319  2.693023  2.145681
      ESP Fit Center  565 is at  -0.959392  2.422622  2.145681
      ESP Fit Center  566 is at  -1.203698  2.064290  2.145681
      ESP Fit Center  567 is at   1.309256  0.613436  2.145681
      ESP Fit Center  568 is at   1.497427  1.004177  2.145681
      ESP Fit Center  569 is at   1.729897  1.433023  1.740497
      ESP Fit Center  570 is at   1.674603  1.853023  1.740497
      ESP Fit Center  571 is at   1.512489  2.244401  1.740497
      ESP Fit Center  572 is at   1.254603  2.580484  1.740497
      ESP Fit Center  573 is at   0.918520  2.838370  1.740497
      ESP Fit Center  574 is at   0.527142  3.000484  1.740497
      ESP Fit Center  575 is at   0.107142  3.055778  1.740497
      ESP Fit Center  576 is at  -0.312858  3.000484  1.740497
      ESP Fit Center  577 is at  -0.704236  2.838370  1.740497
      ESP Fit Center  578 is at  -1.040319  2.580484  1.740497
      ESP Fit Center  579 is at  -1.298205  2.244401  1.740497
      ESP Fit Center  580 is at   1.674603  1.013023  1.740497
      ESP Fit Center  581 is at   1.734362  1.850822  1.305681
      ESP Fit Center  582 is at   1.579337  2.242369  1.305681
      ESP Fit Center  583 is at   1.331809  2.583062  1.305681
      ESP Fit Center  584 is at   1.007331  2.851494  1.305681
      ESP Fit Center  585 is at   0.626291  3.030798  1.305681
      ESP Fit Center  586 is at  -0.158048  3.094221  1.448146
      ESP Fit Center  587 is at  -0.559866  3.201887  1.448146
      ESP Fit Center  588 is at   0.302334  3.184251  1.254085
      ESP Fit Center  589 is at  -0.039824  3.442637  1.254085
      ESP Fit Center  590 is at  -0.452217  3.559973  1.254085
      ESP Fit Center  591 is at  -0.348539  3.868062  0.992923
      ESP Fit Center  592 is at  -0.969556  4.457901 -0.492001
      ESP Fit Center  593 is at  -1.076122  4.392151 -0.901690
      ESP Fit Center  594 is at  -1.466923  4.247414 -0.901690
      ESP Fit Center  595 is at  -2.525058  1.781669 -0.901690
      ESP Fit Center  596 is at  -2.360713  1.398700 -0.901690
      ESP Fit Center  597 is at  -0.873747  4.312841 -1.295636
      ESP Fit Center  598 is at  -1.277988  4.200603 -1.295636
      ESP Fit Center  599 is at  -1.648651  4.004090 -1.295636
      ESP Fit Center  600 is at  -2.488640  2.188485 -1.295636
      ESP Fit Center  601 is at  -2.398452  1.778760 -1.295636
      ESP Fit Center  602 is at  -0.770333  4.131607 -1.658698
      ESP Fit Center  603 is at  -1.179037  4.030871 -1.658698
      ESP Fit Center  604 is at  -1.551756  3.835253 -1.658698
      ESP Fit Center  605 is at  -1.866830  3.556121 -1.658698
      ESP Fit Center  606 is at  -2.105948  3.209699 -1.658698
      ESP Fit Center  607 is at   0.864908  2.816604 -1.976925
      ESP Fit Center  608 is at  -0.348539  3.868062 -1.976925
      ESP Fit Center  609 is at  -0.771193  3.868062 -1.976925
      ESP Fit Center  610 is at  -1.176726  3.748987 -1.976925
[...]
 5518 Fit       0.014547
 5519 Fit       0.012981
 5520 Fit       0.011693
 5521 Fit       0.010621
 5522 Fit       0.009719
 5523 Fit       0.008962
 5524 Fit       0.008353
 5525 Fit       0.007933
 5526 Fit       0.007826
 5527 Fit       0.008313
 5528 Fit       0.009877
 5529 Fit       0.020574
 5530 Fit       0.023114
 5531 Fit       0.024942
 5532 Fit       0.026411
 5533 Fit       0.026991
 5534 Fit       0.022628
 5535 Fit       0.020970
 5536 Fit       0.018804
 5537 Fit       0.016654
 5538 Fit       0.014779
 5539 Fit       0.013242
 5540 Fit       0.012021
 5541 Fit       0.011081
 5542 Fit       0.010413
 5543 Fit       0.010066
 5544 Fit       0.010177
 5545 Fit       0.011012
 5546 Fit       0.012872
 5547 Fit       0.015674
 5548 Fit       0.018649
 5549 Fit       0.021005
 5550 Fit       0.022566
 5551 Fit       0.023204
 5552 Fit       0.019949
 5553 Fit       0.018458
 5554 Fit       0.016453
 5555 Fit       0.014593
 5556 Fit       0.013163
 5557 Fit       0.012252
 5558 Fit       0.011968
 5559 Fit       0.012543
 5560 Fit       0.014217
 5561 Fit       0.016695
 5562 Fit       0.018960
 5563 Fit       0.020173
 5564 Fit       0.017721
 5565 Fit       0.016159
 5566 Fit       0.014390
 5567 Fit       0.013841
 5568 Fit       0.015113
 5569 Fit       0.017231
 5570 Fit       0.015730
 5571 Fit      -0.012585
 5572 Fit      -0.014662
 5573 Fit      -0.010187
 5574 Fit      -0.041993
 5575 Fit      -0.041751
 5576 Fit      -0.040688
 5577 Fit      -0.041099
 5578 Fit      -0.042047
 5579 Fit      -0.042751
 5580 Fit      -0.042851
 5581 Fit      -0.041339
 5582 Fit      -0.039485
 5583 Fit      -0.038728
 5584 Fit      -0.039148
 5585 Fit      -0.040112
 5586 Fit      -0.041102
 5587 Fit      -0.041908
 5588 Fit      -0.042524
 5589 Fit      -0.043040
 5590 Fit      -0.043516
 5591 Fit      -0.043730
 5592 Fit      -0.043082
 5593 Fit      -0.040808
 5594 Fit      -0.038094
 5595 Fit      -0.036343
 5596 Fit      -0.035976
 5597 Fit      -0.036638
 5598 Fit      -0.037773
 5599 Fit      -0.038977
 5600 Fit      -0.040049
 5601 Fit      -0.040915
 5602 Fit      -0.041577
 5603 Fit      -0.042078
 5604 Fit      -0.042488
 5605 Fit      -0.042905
 5606 Fit      -0.043433
 5607 Fit      -0.044099
 5608 Fit      -0.044682
 5609 Fit      -0.044625
 5610 Fit      -0.043317
 5611 Fit      -0.040272
 5612 Fit      -0.036355
 5613 Fit      -0.033412
 5614 Fit      -0.032106
 5615 Fit      -0.032277
 5616 Fit      -0.033347
 5617 Fit      -0.034788
 5618 Fit      -0.036275
 5619 Fit      -0.037641
 5620 Fit      -0.038807
 5621 Fit      -0.039755
 5622 Fit      -0.040494
 5623 Fit      -0.041050
 5624 Fit      -0.041459
 5625 Fit      -0.041768
 5626 Fit      -0.042037
 5627 Fit      -0.042355
 5628 Fit      -0.042831
 5629 Fit      -0.043574
 5630 Fit      -0.044608
 5631 Fit      -0.045749
 5632 Fit      -0.046486
 5633 Fit      -0.046050
 5634 Fit      -0.043885
 5635 Fit      -0.029504
 5636 Fit      -0.031450
 5637 Fit      -0.033329
 5638 Fit      -0.035034
 5639 Fit      -0.036513
 5640 Fit      -0.037747
 5641 Fit      -0.038739
 5642 Fit      -0.039510
 5643 Fit      -0.040087
 5644 Fit      -0.040498
 5645 Fit      -0.040776
 5646 Fit      -0.040962
 5647 Fit      -0.041107
 5648 Fit      -0.041283
 5649 Fit      -0.041593
 5650 Fit      -0.042171
 5651 Fit      -0.043167
 5652 Fit      -0.044670
 5653 Fit      -0.046598
 5654 Fit      -0.048544
 5655 Fit      -0.049655
 5656 Fit      -0.048820
 5657 Fit      -0.045395
 5658 Fit      -0.025420
 5659 Fit      -0.027949
 5660 Fit      -0.030264
 5661 Fit      -0.032337
 5662 Fit      -0.034142
 5663 Fit      -0.035662
 5664 Fit      -0.036900
 5665 Fit      -0.037873
 5666 Fit      -0.038610
 5667 Fit      -0.039138
 5668 Fit      -0.039486
 5669 Fit      -0.039685
 5670 Fit      -0.039774
 5671 Fit      -0.039797
 5672 Fit      -0.039807
 5673 Fit      -0.039877
 5674 Fit      -0.040121
 5675 Fit      -0.040709
 5676 Fit      -0.041858
 5677 Fit      -0.043763
 5678 Fit      -0.046520
 5679 Fit      -0.049970
 5680 Fit      -0.023846
 5681 Fit      -0.026570
 5682 Fit      -0.029034
 5683 Fit      -0.031212
 5684 Fit      -0.033073
 5685 Fit      -0.034608
 5686 Fit      -0.035833
 5687 Fit      -0.036773
 5688 Fit      -0.037459
 5689 Fit      -0.037918
 5690 Fit      -0.038178
 5691 Fit      -0.038271
 5692 Fit      -0.038240
 5693 Fit      -0.038131
 5694 Fit      -0.037989
 5695 Fit      -0.037855
 5696 Fit      -0.037790
 5697 Fit      -0.037916
 5698 Fit      -0.038444
 5699 Fit      -0.039661
 5700 Fit      -0.041868
 5701 Fit      -0.045322
 5702 Fit      -0.022897
 5703 Fit      -0.025799
 5704 Fit      -0.028389
 5705 Fit      -0.030598
 5706 Fit      -0.032407
 5707 Fit      -0.033840
 5708 Fit      -0.034930
 5709 Fit      -0.035712
 5710 Fit      -0.036215
 5711 Fit      -0.036467
 5712 Fit      -0.036500
 5713 Fit      -0.036359
 5714 Fit      -0.036106
 5715 Fit      -0.035803
 5716 Fit      -0.035496
 5717 Fit      -0.035200
 5718 Fit      -0.034928
 5719 Fit      -0.034764
 5720 Fit      -0.041678
 5721 Fit      -0.023962
 5722 Fit      -0.026915
 5723 Fit      -0.029306
 5724 Fit      -0.031172
 5725 Fit      -0.032571
 5726 Fit      -0.033558
 5727 Fit      -0.034170
 5728 Fit      -0.034436
 5729 Fit      -0.034387
 5730 Fit      -0.034069
 5731 Fit      -0.033565
 5732 Fit      -0.032989
 5733 Fit      -0.022317
 5734 Fit      -0.025515
 5735 Fit      -0.027953
 5736 Fit      -0.029752
 5737 Fit      -0.031005
 5738 Fit      -0.031768
 5739 Fit      -0.032073
 5740 Fit      -0.031937
 5741 Fit      -0.031387
 5742 Fit      -0.022214
 5743 Fit      -0.025114
 5744 Fit      -0.027165
 5745 Fit      -0.028518
 5746 Fit      -0.029244
 5747 Fit      -0.029363
 5748 Fit      -0.028862
 5749 Fit      -0.020115
 5750 Fit      -0.023066
 5751 Fit      -0.025010
 5752 Fit      -0.026108
 5753 Fit      -0.026402
 5754 Fit      -0.025839
 5755 Fit      -0.018195
 5756 Fit      -0.020930
 5757 Fit      -0.022565
 5758 Fit      -0.023200
 5759 Fit      -0.015624
 5760 Fit      -0.018315
 5761 Fit      -0.019707
 5762 Fit      -0.016440
 5763 Fit      -0.006230
 5764 Fit      -0.012179
 5765 Fit       0.001399
 5766 Fit      -0.007896
 5767 Fit      -0.009108
 5768 Fit       0.007765
 5769 Fit      -0.005561
 5770 Fit      -0.006850
 5771 Fit      -0.007075
 5772 Fit      -0.004194
 5773 Fit      -0.005239
 5774 Fit      -0.005291
 5775 Fit      -0.000831
 5776 Fit      -0.002793
 5777 Fit      -0.003632
 5778 Fit      -0.000244
 5779 Fit      -0.001573
 5780 Fit      -0.001808
 5781 Fit       0.002776
 5782 Fit       0.000921
 5783 Fit       0.000279
 5784 Fit       0.007389
 5785 Fit       0.004464
 5786 Fit       0.002935
 5787 Fit       0.002809
 5788 Fit       0.017916
 5789 Fit       0.014103
 5790 Fit       0.010308
 5791 Fit       0.007278
 5792 Fit       0.005640
 5793 Fit       0.005600
 5794 Fit       0.016537
 5795 Fit       0.012696
 5796 Fit       0.009625
 5797 Fit       0.008412
 5798 Fit       0.009366
 5799 Fit       0.018271
 5800 Fit       0.015574
 5801 Fit       0.012239
 5802 Fit       0.011986
 5803 Fit       0.014708
 5804 Fit       0.017588
 5805 Fit       0.014962
 5806 Fit       0.009450
 5807 Fit       0.014241
 5808 Fit       0.016463
 5809 Fit       0.017306
 5810 Fit       0.019105
 5811 Fit       0.021668
 5812 Fit       0.019436
 5813 Fit       0.020864
 5814 Fit       0.022822
 5815 Fit       0.025227
 5816 Fit       0.020502
 5817 Fit       0.021518
 5818 Fit       0.023006
 5819 Fit       0.024865
 5820 Fit       0.026907
 5821 Fit       0.028816
 5822 Fit       0.028474
 5823 Fit       0.028804
 5824 Fit       0.021751
 5825 Fit       0.022887
 5826 Fit       0.024347
 5827 Fit       0.025959
 5828 Fit       0.027448
 5829 Fit       0.026788
 5830 Fit       0.026817
 5831 Fit       0.025975
 5832 Fit       0.024214
 5833 Fit       0.021496
 5834 Fit       0.022148
 5835 Fit       0.023379
 5836 Fit       0.024749
 5837 Fit       0.026003
 5838 Fit       0.024995
 5839 Fit       0.024548
 5840 Fit       0.022781
 5841 Fit       0.019870
 5842 Fit       0.021611
 5843 Fit       0.023062
 5844 Fit       0.024336
 5845 Fit       0.023021
 5846 Fit       0.021659
 5847 Fit       0.018966
 5848 Fit       0.020251
 5849 Fit       0.022196
 5850 Fit       0.020818
 5851 Fit      -0.031575
 5852 Fit      -0.027152
 5853 Fit      -0.024510
 5854 Fit      -0.021416
 5855 Fit      -0.017844
 5856 Fit      -0.016026
 5857 Fit      -0.014194
 5858 Fit      -0.012761
 5859 Fit      -0.009890
 5860 Fit      -0.008982
 5861 Fit      -0.006962
 5862 Fit      -0.006313
 5863 Fit      -0.005688
 5864 Fit      -0.005091
 5865 Fit      -0.004616
 5866 Fit      -0.004138
 5867 Fit      -0.003669
 5868 Fit      -0.003231
 5869 Fit      -0.002863
 5870 Fit      -0.002482
 5871 Fit      -0.002110
 5872 Fit      -0.001766
 5873 Fit      -0.001675
 5874 Fit      -0.001331
 5875 Fit      -0.000983
 5876 Fit      -0.000658
 5877 Fit      -0.000377
 5878 Fit      -0.000153
 5879 Fit      -0.005927
 5880 Fit      -0.000747
 5881 Fit      -0.000397
 5882 Fit      -0.000032
 5883 Fit       0.000321
 5884 Fit       0.000633
 5885 Fit       0.000885
 5886 Fit       0.001067
 5887 Fit       0.001179
 5888 Fit       0.001217
 5889 Fit       0.000198
 5890 Fit       0.000649
 5891 Fit       0.000286
 5892 Fit       0.000706
 5893 Fit       0.001123
 5894 Fit       0.001511
 5895 Fit       0.001843
 5896 Fit       0.002101
 5897 Fit       0.002280
 5898 Fit       0.002387
 5899 Fit       0.002434
 5900 Fit       0.002443
 5901 Fit       0.002438
 5902 Fit       0.002459
 5903 Fit       0.002562
 5904 Fit       0.002832
 5905 Fit       0.003388
 5906 Fit       0.004414
 5907 Fit       0.006199
 5908 Fit      -0.006695
 5909 Fit       0.000764
 5910 Fit       0.001294
 5911 Fit       0.001820
 5912 Fit       0.002323
 5913 Fit       0.002775
 5914 Fit       0.003148
 5915 Fit       0.003429
 5916 Fit       0.003620
 5917 Fit       0.003740
 5918 Fit       0.003823
 5919 Fit       0.003916
 5920 Fit       0.004082
 5921 Fit       0.004401
 5922 Fit       0.004980
 5923 Fit       0.005962
 5924 Fit       0.007550
 5925 Fit       0.010039
 5926 Fit      -0.004867
 5927 Fit      -0.003780
 5928 Fit      -0.002714
 5929 Fit      -0.000010
 5930 Fit       0.000710
 5931 Fit       0.001391
 5932 Fit       0.002061
 5933 Fit       0.002725
 5934 Fit       0.006712
 5935 Fit       0.007831
 5936 Fit       0.009600
 5937 Fit       0.012300
 5938 Fit      -0.003097
 5939 Fit      -0.002172
 5940 Fit      -0.001270
 5941 Fit      -0.000400
 5942 Fit       0.000432
 5943 Fit       0.001238
 5944 Fit       0.002035
 5945 Fit       0.013615
 5946 Fit       0.017383
 5947 Fit      -0.001689
 5948 Fit      -0.000955
 5949 Fit      -0.000181
 5950 Fit       0.000621
 5951 Fit       0.001453
 5952 Fit       0.000700
 5953 Fit       0.001240
 5954 Fit       0.001922
 5955 Fit       0.003042
 5956 Fit      -0.030856
 5957 Fit      -0.027907
 5958 Fit      -0.024400
 5959 Fit      -0.022679
 5960 Fit      -0.028743
 5961 Fit      -0.023664
 5962 Fit      -0.020332
 5963 Fit      -0.018239
 5964 Fit      -0.017067
 5965 Fit      -0.026928
 5966 Fit      -0.021830
 5967 Fit      -0.018263
 5968 Fit      -0.015781
 5969 Fit      -0.014099
 5970 Fit      -0.013017
 5971 Fit      -0.012385
 5972 Fit      -0.024464
 5973 Fit      -0.019861
 5974 Fit      -0.016463
 5975 Fit      -0.013949
 5976 Fit      -0.012105
 5977 Fit      -0.010773
 5978 Fit      -0.009832
 5979 Fit      -0.009179
 5980 Fit      -0.022515
 5981 Fit      -0.018277
 5982 Fit      -0.015010
 5983 Fit      -0.012493
 5984 Fit      -0.010564
 5985 Fit      -0.009100
 5986 Fit      -0.008002
 5987 Fit      -0.007180
 5988 Fit      -0.006551
 5989 Fit      -0.019760
 5990 Fit      -0.016336
 5991 Fit      -0.013503
 5992 Fit      -0.011194
 5993 Fit      -0.009336
 5994 Fit      -0.007858
 5995 Fit      -0.006696
 5996 Fit      -0.005785
 5997 Fit      -0.005061
 5998 Fit      -0.004458
 5999 Fit      -0.015540
 6000 Fit      -0.013160
 6001 Fit      -0.011013
 6002 Fit      -0.009153
 6003 Fit      -0.007583
 6004 Fit      -0.006283
 6005 Fit      -0.005221
 6006 Fit      -0.004356
 6007 Fit      -0.003641
 6008 Fit      -0.003021
 6009 Fit      -0.002434
 6010 Fit      -0.012540
 6011 Fit      -0.010879
 6012 Fit      -0.009207
 6013 Fit      -0.007648
 6014 Fit      -0.006263
 6015 Fit      -0.005069
 6016 Fit      -0.004060
 6017 Fit      -0.003213
 6018 Fit      -0.002490
 6019 Fit      -0.001841
 6020 Fit      -0.001205
 6021 Fit      -0.009803
 6022 Fit      -0.008486
 6023 Fit      -0.007155
 6024 Fit      -0.005876
 6025 Fit      -0.004701
 6026 Fit      -0.003659
 6027 Fit      -0.002753
 6028 Fit      -0.001963
 6029 Fit      -0.001251
 6030 Fit      -0.000563
 6031 Fit      -0.006761
 6032 Fit      -0.005575
 6033 Fit      -0.004477
 6034 Fit      -0.003460
 6035 Fit      -0.002534
 6036 Fit      -0.001701
 6037 Fit      -0.000938
 6038 Fit      -0.000205
 6039 Fit      -0.003600
 6040 Fit      -0.002605
 6041 Fit      -0.001692
 6042 Fit      -0.000841
 6043 Fit      -0.000018
 6044 Fit       0.003185
 6045 Fit       0.003624
 6046 Fit       0.003995
 6047 Fit       0.004300
 6048 Fit       0.004553
 6049 Fit       0.004777
 6050 Fit       0.005008
 6051 Fit       0.005300
 6052 Fit       0.005732
 6053 Fit       0.006419
 6054 Fit       0.002966
 6055 Fit       0.003545
 6056 Fit       0.004067
 6057 Fit       0.004529
 6058 Fit       0.004930
 6059 Fit       0.005280
 6060 Fit       0.005600
 6061 Fit       0.005925
 6062 Fit       0.006307
 6063 Fit       0.006822
 6064 Fit       0.007576
 6065 Fit       0.008722
 6066 Fit       0.010472
 6067 Fit       0.013114
 6068 Fit       0.002729
 6069 Fit       0.003340
 6070 Fit       0.003930
 6071 Fit       0.004486
 6072 Fit       0.005001
 6073 Fit       0.005469
 6074 Fit       0.005896
 6075 Fit       0.006294
 6076 Fit       0.006695
 6077 Fit       0.007142
 6078 Fit       0.007703
 6079 Fit       0.008470
 6080 Fit       0.009568
 6081 Fit       0.011158
 6082 Fit       0.013437
 6083 Fit       0.016616
 6084 Fit       0.002954
 6085 Fit       0.003113
 6086 Fit       0.003459
 6087 Fit       0.003917
 6088 Fit       0.004436
 6089 Fit       0.004981
 6090 Fit       0.005522
 6091 Fit       0.006042
 6092 Fit       0.006537
 6093 Fit       0.007017
 6094 Fit       0.007512
 6095 Fit       0.008074
 6096 Fit       0.008779
 6097 Fit       0.009731
 6098 Fit       0.011063
 6099 Fit       0.012919
 6100 Fit       0.015415
 6101 Fit       0.018545
 6102 Fit       0.018663
 6103 Fit       0.019936
 6104 Fit       0.006801
 6105 Fit       0.005569
 6106 Fit       0.005064
 6107 Fit       0.005004
 6108 Fit       0.005216
 6109 Fit       0.005595
 6110 Fit       0.006065
 6111 Fit       0.006578
 6112 Fit       0.007105
 6113 Fit       0.007645
 6114 Fit       0.008219
 6115 Fit       0.008880
 6116 Fit       0.009710
 6117 Fit       0.010811
 6118 Fit       0.012292
 6119 Fit       0.014210
 6120 Fit       0.016471
 6121 Fit       0.016035
 6122 Fit       0.016444
 6123 Fit       0.015228
 6124 Fit       0.012734
 6125 Fit       0.010090
 6126 Fit       0.008147
 6127 Fit       0.007062
 6128 Fit       0.006644
 6129 Fit       0.006668
 6130 Fit       0.006966
 6131 Fit       0.007424
 6132 Fit       0.007973
 6133 Fit       0.008598
 6134 Fit       0.009328
 6135 Fit       0.010237
 6136 Fit       0.011415
 6137 Fit       0.012908
 6138 Fit       0.014598
 6139 Fit       0.013928
 6140 Fit       0.013728
 6141 Fit       0.012074
 6142 Fit       0.010019
 6143 Fit       0.008613
 6144 Fit       0.008062
 6145 Fit       0.008143
 6146 Fit       0.008610
 6147 Fit       0.009325
 6148 Fit       0.010271
 6149 Fit       0.011492
 6150 Fit       0.012888
 6151 Fit       0.012191
 6152 Fit       0.011386
 6153 Fit       0.009824
 6154 Fit       0.009375
 6155 Fit       0.010021
 6156 Fit       0.011257
 6157 Fit       0.010703
 6158 Fit      -0.033516
 6159 Fit      -0.035026
 6160 Fit      -0.031734
 6161 Fit      -0.026695
 6162 Fit      -0.028281
 6163 Fit      -0.036728
 6164 Fit      -0.029419
 6165 Fit      -0.023717
 6166 Fit      -0.021159
 6167 Fit      -0.021318
 6168 Fit      -0.024128
 6169 Fit      -0.029529
 6170 Fit      -0.039217
 6171 Fit      -0.026488
 6172 Fit      -0.021274
 6173 Fit      -0.018167
 6174 Fit      -0.016651
 6175 Fit      -0.016521
 6176 Fit      -0.017790
 6177 Fit      -0.020627
 6178 Fit      -0.025262
 6179 Fit      -0.031708
 6180 Fit      -0.016843
 6181 Fit      -0.014525
 6182 Fit      -0.013203
 6183 Fit      -0.012743
 6184 Fit      -0.013139
 6185 Fit      -0.014481
 6186 Fit      -0.016963
 6187 Fit      -0.020882
 6188 Fit      -0.026582
 6189 Fit      -0.014000
 6190 Fit      -0.011967
 6191 Fit      -0.010638
 6192 Fit      -0.009904
 6193 Fit      -0.009735
 6194 Fit      -0.010163
 6195 Fit      -0.011276
 6196 Fit      -0.013238
 6197 Fit      -0.016313
 6198 Fit      -0.020900
 6199 Fit      -0.027517
 6200 Fit      -0.009536
 6201 Fit      -0.008404
 6202 Fit      -0.007655
 6203 Fit      -0.007269
 6204 Fit      -0.007258
 6205 Fit      -0.007660
 6206 Fit      -0.008546
 6207 Fit      -0.010036
 6208 Fit      -0.012319
 6209 Fit      -0.015695
 6210 Fit      -0.020630
 6211 Fit      -0.006153
 6212 Fit      -0.005558
 6213 Fit      -0.005205
 6214 Fit      -0.005110
 6215 Fit      -0.005304
 6216 Fit      -0.005837
 6217 Fit      -0.006783
 6218 Fit      -0.008260
 6219 Fit      -0.010453
 6220 Fit      -0.013659
 6221 Fit      -0.018358
 6222 Fit      -0.003661
 6223 Fit      -0.003402
 6224 Fit      -0.003301
 6225 Fit      -0.003385
 6226 Fit      -0.003687
 6227 Fit      -0.004255
 6228 Fit      -0.005153
 6229 Fit      -0.006478
 6230 Fit      -0.008378
 6231 Fit      -0.011088
 6232 Fit      -0.014981
 6233 Fit      -0.001784
 6234 Fit      -0.001705
 6235 Fit      -0.001722
 6236 Fit      -0.001863
 6237 Fit      -0.002156
 6238 Fit      -0.002639
 6239 Fit      -0.003355
 6240 Fit      -0.004367
 6241 Fit      -0.005762
 6242 Fit      -0.007672
 6243 Fit      -0.010290
 6244 Fit      -0.000238
 6245 Fit      -0.000369
 6246 Fit      -0.000583
 6247 Fit      -0.000906
 6248 Fit      -0.001361
 6249 Fit      -0.001973
 6250 Fit      -0.002769
 6251 Fit      -0.003772
 6252 Fit      -0.004997
 6253 Fit      -0.006396
 6254 Fit       0.000951
 6255 Fit       0.000746
 6256 Fit       0.000507
 6257 Fit       0.000240
 6258 Fit      -0.000032
 6259 Fit      -0.000247
 -----------------------------------------------------------------
 Leave Link  602 at Thu Aug  1 13:22:06 2002, MaxMem=    6291456 cpu:      15.9

 Test job not archived.
 1\1\GINC-EIR\SP\RHF\6-31G(d)\C6H12N2O2\RAYL\01-Aug-2002\0\\#HF/6-31G* 
 SCF=TIGHT TEST POP=MK IOP(6/33=2) IOP(6/42=6)\\remark line goes here\\
 0,1\H,0,3.223909,-0.432583,-1.456304\C,0,3.183295,-0.659513,-0.396659\
 H,0,3.911771,-0.036483,0.113484\H,0,3.44422,-1.695036,-0.233387\C,0,1.
 814655,-0.401736,0.193709\O,0,1.354351,-1.076212,1.070166\N,0,1.138566
 ,0.655736,-0.332536\H,0,1.61878,1.248954,-0.968907\C,0,-0.081034,1.165
 699,0.273056\H,0,0.107142,1.433023,1.305681\C,0,-0.559866,2.398252,-0.
 492001\H,0,-1.465057,2.779575,-0.037113\H,0,0.19105,3.182182,-0.460077
 \H,0,-0.770277,2.158162,-1.529123\C,0,-1.212221,0.138708,0.350124\O,0,
 -1.985294,0.178234,1.265566\N,0,-1.365316,-0.672027,-0.720261\H,0,-0.5
 78583,-0.783131,-1.315057\C,0,-2.349128,-1.733614,-0.699947\H,0,-3.296
 532,-1.337875,-0.365086\H,0,-2.464895,-2.122839,-1.703865\H,0,-2.06094
 6,-2.542866,-0.03623\\Version=SGI64-G98RevA.11.3\HF=-492.8548025\RMSD=
 9.049e-09\Dipole=1.3612375,0.7116429,-2.0760182\PG=C01 [X(C6H12N2O2)]\
 \@


 THE MORE POWERFUL THE METHOD, THE MORE CATASTROPHIC THE ERRORS.
     -- M.D. KAMEN
 Job cpu time:  0 days  0 hours  8 minutes 33.6 seconds.
 File lengths (MBytes):  RWF=   24 Int=    0 D2E=    0 Chk=    9 Scr=    1
 Normal termination of Gaussian 98.
