 Entering Gaussian System, Link 0=g03
 Initial command:
 /opt/g03/l1.exe /SCRATCH/cuigl/Gau-3005.inp -scrdir=/SCRATCH/cuigl/
 Entering Link 1 = /opt/g03/l1.exe PID=      3006.
  
 Copyright (c) 1988,1990,1992,1993,1995,1998,2003, Gaussian, Inc.
                  All Rights Reserved.
  
 This is the Gaussian(R) 03 program.  It is based on the
 the Gaussian(R) 98 system (copyright 1998, Gaussian, Inc.),
 the Gaussian(R) 94 system (copyright 1995, Gaussian, Inc.),
 the Gaussian 92(TM) system (copyright 1992, Gaussian, Inc.),
 the Gaussian 90(TM) system (copyright 1990, Gaussian, Inc.),
 the Gaussian 88(TM) system (copyright 1988, Gaussian, Inc.),
 the Gaussian 86(TM) system (copyright 1986, Carnegie Mellon
 University), and the Gaussian 82(TM) system (copyright 1983,
 Carnegie Mellon University). Gaussian is a federally registered
 trademark of Gaussian, Inc.
  
 This software contains proprietary and confidential information,
 including trade secrets, belonging to Gaussian, Inc.
  
 This software is provided under written license and may be
 used, copied, transmitted, or stored only in accord with that
 written license.
  
 The following legend is applicable only to US Government
 contracts under DFARS:
  
                    RESTRICTED RIGHTS LEGEND
  
 Use, duplication or disclosure by the US Government is subject
 to restrictions as set forth in subparagraph (c)(1)(ii) of the
 Rights in Technical Data and Computer Software clause at DFARS
 252.227-7013.
  
 Gaussian, Inc.
 Carnegie Office Park, Building 6, Pittsburgh, PA 15106 USA
  
 The following legend is applicable only to US Government
 contracts under FAR:
  
                    RESTRICTED RIGHTS LEGEND
  
 Use, reproduction and disclosure by the US Government is subject
 to restrictions as set forth in subparagraph (c) of the
 Commercial Computer Software - Restricted Rights clause at FAR
 52.227-19.
  
 Gaussian, Inc.
 Carnegie Office Park, Building 6, Pittsburgh, PA 15106 USA
  
  
 ---------------------------------------------------------------
 Warning -- This program may not be used in any manner that
 competes with the business of Gaussian, Inc. or will provide
 assistance to any competitor of Gaussian, Inc.  The licensee
 of this program is prohibited from giving any competitor of
 Gaussian, Inc. access to this program.  By using this program,
 the user acknowledges that Gaussian, Inc. is engaged in the
 business of creating and licensing software in the field of
 computational chemistry and represents and warrants to the
 licensee that it is not a competitor of Gaussian, Inc. and that
 it will not use this program in any manner prohibited above.
 ---------------------------------------------------------------
  

 Cite this work as:
 Gaussian 03, Revision B.04,
 M. J. Frisch, G. W. Trucks, H. B. Schlegel, G. E. Scuseria, 
 M. A. Robb, J. R. Cheeseman, J. A. Montgomery, Jr., T. Vreven, 
 K. N. Kudin, J. C. Burant, J. M. Millam, S. S. Iyengar, J. Tomasi, 
 V. Barone, B. Mennucci, M. Cossi, G. Scalmani, N. Rega, 
 G. A. Petersson, H. Nakatsuji, M. Hada, M. Ehara, K. Toyota, 
 R. Fukuda, J. Hasegawa, M. Ishida, T. Nakajima, Y. Honda, O. Kitao, 
 H. Nakai, M. Klene, X. Li, J. E. Knox, H. P. Hratchian, J. B. Cross, 
 C. Adamo, J. Jaramillo, R. Gomperts, R. E. Stratmann, O. Yazyev, 
 A. J. Austin, R. Cammi, C. Pomelli, J. W. Ochterski, P. Y. Ayala, 
 K. Morokuma, G. A. Voth, P. Salvador, J. J. Dannenberg, 
 V. G. Zakrzewski, S. Dapprich, A. D. Daniels, M. C. Strain, 
 O. Farkas, D. K. Malick, A. D. Rabuck, K. Raghavachari, 
 J. B. Foresman, J. V. Ortiz, Q. Cui, A. G. Baboul, S. Clifford, 
 J. Cioslowski, B. B. Stefanov, G. Liu, A. Liashenko, P. Piskorz, 
 I. Komaromi, R. L. Martin, D. J. Fox, T. Keith, M. A. Al-Laham, 
 C. Y. Peng, A. Nanayakkara, M. Challacombe, P. M. W. Gill, 
 B. Johnson, W. Chen, M. W. Wong, C. Gonzalez, and J. A. Pople, 
 Gaussian, Inc., Pittsburgh PA, 2003.
 
 *********************************************
 Gaussian 03:  x86-Linux-G03RevB.04 2-Jun-2003
                   4-May-2004 
 *********************************************
 %chk=fpph-esp
 ----------------------------------
 #rhf 6-31g* opt pop=mk iop(6/33=2)
 ----------------------------------
 1/18=20,38=1/1,3;
 2/9=110,17=6,18=5,40=1/2;
 3/5=1,6=6,7=1,11=1,16=1,25=1,30=1/1,2,3;
 4/7=1/1;
 5/5=2,38=5/2;
 6/7=2,8=2,9=2,10=2,15=8,20=1,28=1,33=2/1,2;
 7//1,2,3,16;
 1/18=20/3(1);
 99//99;
 2/9=110/2;
 3/5=1,6=6,7=1,11=1,16=1,25=1,30=1/1,2,3;
 4/5=5,7=1,16=3/1;
 5/5=2,38=5/2;
 7//1,2,3,16;
 1/18=20/3(-5);
 2/9=110/2;
 6/7=2,8=2,9=2,10=2,15=8,19=2,20=1,28=1,33=2/1,2;
 99/9=1/99;
 ------------------------------------------
 methyl-diphosphate opt and esp calculation
 ------------------------------------------
 Symbolic Z-matrix:
 Charge = -3 Multiplicity = 1
 C                    -1.184     2.10799  -0.04095 
 H                    -1.39707   2.96905  -0.68271 
 H                    -0.10723   1.96034   0.05846 
 H                    -1.61763   2.30052   0.94168 
 O                    -1.80239   0.95018  -0.64106 
 O                    -1.94994  -0.45562   1.44135 
 O                     2.35717  -0.84224   1.14705 
 O                    -2.04632  -1.52697  -0.87733 
 O                     1.70514   1.44124   0.23815 
 O                     0.12127  -0.5198   -0.02243 
 O                     2.27892  -0.44436  -1.36519 
 P                    -1.4398   -0.51655   0.03744 
 P                     1.76748  -0.06327   0.00016 
 

 GradGradGradGradGradGradGradGradGradGradGradGradGradGradGradGradGradGrad
 Berny optimization.
 Initialization pass.
                           ----------------------------
                           !    Initial Parameters    !
                           ! (Angstroms and Degrees)  !
 --------------------------                            --------------------------
 ! Name  Definition              Value          Derivative Info.                !
 --------------------------------------------------------------------------------
 ! R1    R(1,2)                  1.0948         estimate D2E/DX2                !
 ! R2    R(1,3)                  1.0914         estimate D2E/DX2                !
 ! R3    R(1,4)                  1.0912         estimate D2E/DX2                !
 ! R4    R(1,5)                  1.4433         estimate D2E/DX2                !
 ! R5    R(5,12)                 1.6562         estimate D2E/DX2                !
 ! R6    R(6,12)                 1.495          estimate D2E/DX2                !
 ! R7    R(7,13)                 1.5066         estimate D2E/DX2                !
 ! R8    R(8,12)                 1.4918         estimate D2E/DX2                !
 ! R9    R(9,13)                 1.5245         estimate D2E/DX2                !
 ! R10   R(10,12)                1.5622         estimate D2E/DX2                !
 ! R11   R(10,13)                1.7085         estimate D2E/DX2                !
 ! R12   R(11,13)                1.507          estimate D2E/DX2                !
 ! A1    A(2,1,3)              110.5976         estimate D2E/DX2                !
 ! A2    A(2,1,4)              108.1653         estimate D2E/DX2                !
 ! A3    A(2,1,5)              107.6865         estimate D2E/DX2                !
 ! A4    A(3,1,4)              109.5065         estimate D2E/DX2                !
 ! A5    A(3,1,5)              110.6134         estimate D2E/DX2                !
 ! A6    A(4,1,5)              110.2249         estimate D2E/DX2                !
 ! A7    A(1,5,12)             116.5057         estimate D2E/DX2                !
 ! A8    A(12,10,13)           164.1071         estimate D2E/DX2                !
 ! A9    A(5,12,6)             105.8968         estimate D2E/DX2                !
 ! A10   A(5,12,8)             105.0461         estimate D2E/DX2                !
 ! A11   A(5,12,10)            101.8239         estimate D2E/DX2                !
 ! A12   A(6,12,8)             117.6911         estimate D2E/DX2                !
 ! A13   A(6,12,10)            112.1518         estimate D2E/DX2                !
 ! A14   A(8,12,10)            112.4174         estimate D2E/DX2                !
 ! A15   A(7,13,9)             114.043          estimate D2E/DX2                !
 ! A16   A(7,13,10)            104.4208         estimate D2E/DX2                !
 ! A17   A(7,13,11)            115.2209         estimate D2E/DX2                !
 ! A18   A(9,13,10)            103.0837         estimate D2E/DX2                !
 ! A19   A(9,13,11)            113.884          estimate D2E/DX2                !
 ! A20   A(10,13,11)           104.3274         estimate D2E/DX2                !
 ! D1    D(2,1,5,12)           171.6857         estimate D2E/DX2                !
 ! D2    D(3,1,5,12)            50.7245         estimate D2E/DX2                !
 ! D3    D(4,1,5,12)           -70.5256         estimate D2E/DX2                !
 ! D4    D(1,5,12,6)            62.3656         estimate D2E/DX2                !
 ! D5    D(1,5,12,8)          -172.4021         estimate D2E/DX2                !
 ! D6    D(1,5,12,10)          -55.0327         estimate D2E/DX2                !
 ! D7    D(13,10,12,5)          35.8144         estimate D2E/DX2                !
 ! D8    D(13,10,12,6)         -76.9767         estimate D2E/DX2                !
 ! D9    D(13,10,12,8)         147.7315         estimate D2E/DX2                !
 ! D10   D(12,10,13,7)         117.7521         estimate D2E/DX2                !
 ! D11   D(12,10,13,9)          -1.697          estimate D2E/DX2                !
 ! D12   D(12,10,13,11)       -120.931          estimate D2E/DX2                !
 --------------------------------------------------------------------------------
 Trust Radius=3.00D-01 FncErr=1.00D-07 GrdErr=1.00D-07
 Number of steps in this run=  54 maximum allowed number of steps= 100.
 GradGradGradGradGradGradGradGradGradGradGradGradGradGradGradGradGradGrad

                          Input orientation:                          
 ---------------------------------------------------------------------
 Center     Atomic     Atomic              Coordinates (Angstroms)
 Number     Number      Type              X           Y           Z
 ---------------------------------------------------------------------
    1          6             0       -1.184004    2.107994   -0.040949
    2          1             0       -1.397072    2.969053   -0.682706
    3          1             0       -0.107230    1.960337    0.058463
    4          1             0       -1.617627    2.300516    0.941683
    5          8             0       -1.802390    0.950176   -0.641056
    6          8             0       -1.949941   -0.455615    1.441349
    7          8             0        2.357169   -0.842237    1.147046
    8          8             0       -2.046320   -1.526971   -0.877330
    9          8             0        1.705137    1.441239    0.238148
   10          8             0        0.121274   -0.519799   -0.022429
   11          8             0        2.278921   -0.444357   -1.365189
   12         15             0       -1.439799   -0.516553    0.037439
   13         15             0        1.767476   -0.063270    0.000157
 ---------------------------------------------------------------------
                    Distance matrix (angstroms):
                    1          2          3          4          5
     1  C    0.000000
     2  H    1.094839   0.000000
     3  H    1.091388   1.797368   0.000000
     4  H    1.091173   1.770374   1.782442   0.000000
     5  O    1.443285   2.059583   2.093638   2.088688   0.000000
     6  O    3.058751   4.067631   3.338380   2.820701   2.516829
     7  O    4.759738   5.654047   3.887505   5.071299   4.869495
     8  O    3.828328   4.546827   4.098426   4.259371   2.500317
     9  O    2.978186   3.578532   1.893786   3.503438   3.649231
    10  O    2.934176   3.861791   2.491953   3.450720   2.498802
    11  O    4.501106   5.062615   3.674650   5.295193   4.373350
    12  P    2.638148   3.559478   2.812680   2.963977   1.656237
    13  P    3.664330   4.435724   2.759150   4.234723   3.765922
                    6          7          8          9         10
     6  O    0.000000
     7  O    4.334430   0.000000
     8  O    2.556045   4.894658   0.000000
     9  O    4.290145   2.542736   4.912025   0.000000
    10  O    2.537065   2.543789   2.538447   2.534204   0.000000
    11  O    5.075437   2.544751   4.485284   2.540746   2.542467
    12  P    1.494965   3.969164   1.491849   3.709967   1.562224
    13  P    4.006265   1.506613   4.178211   1.524491   1.708482
                   11         12         13
    11  O    0.000000
    12  P    3.975105   0.000000
    13  P    1.506975   3.239362   0.000000
 Stoichiometry    CH3O7P2(3-)
 Framework group  C1[X(CH3O7P2)]
 Deg. of freedom    33
 Full point group                 C1      NOp   1
 Largest Abelian subgroup         C1      NOp   1
 Largest concise Abelian subgroup C1      NOp   1
                         Standard orientation:                         
 ---------------------------------------------------------------------
 Center     Atomic     Atomic              Coordinates (Angstroms)
 Number     Number      Type              X           Y           Z
 ---------------------------------------------------------------------
    1          6             0       -1.184004    2.107994   -0.040949
    2          1             0       -1.397072    2.969053   -0.682706
    3          1             0       -0.107230    1.960337    0.058463
    4          1             0       -1.617627    2.300516    0.941683
    5          8             0       -1.802390    0.950176   -0.641056
    6          8             0       -1.949941   -0.455615    1.441349
    7          8             0        2.357169   -0.842237    1.147046
    8          8             0       -2.046320   -1.526971   -0.877330
    9          8             0        1.705137    1.441239    0.238148
   10          8             0        0.121274   -0.519799   -0.022429
   11          8             0        2.278921   -0.444357   -1.365189
   12         15             0       -1.439799   -0.516553    0.037439
   13         15             0        1.767476   -0.063270    0.000157
 ---------------------------------------------------------------------
 Rotational constants (GHZ):      1.7324611      0.7363909      0.6585786
 Standard basis: 6-31G(d) (6D, 7F)
 There are   164 symmetry adapted basis functions of A   symmetry.
 Integral buffers will be    262144 words long.
 Raffenetti 1 integral format.
 Two-electron integral symmetry is turned on.
   164 basis functions,   340 primitive gaussians,   164 cartesian basis functions
    49 alpha electrons       49 beta electrons
       nuclear repulsion energy       831.6874038589 Hartrees.
 NAtoms=   13 NActive=   13 NUniq=   13 SFac= 1.00D+00 NAtFMM=   60 Big=F
 One-electron integrals computed using PRISM.
 NBasis=   164 RedAO= T  NBF=   164
 NBsUse=   164 1.00D-06 NBFU=   164
 Harris functional with IExCor=  205 diagonalized for initial guess.
 ExpMin= 9.98D-02 ExpMax= 1.94D+04 ExpMxC= 2.91D+03 IAcc=2 IRadAn=         4 AccDes= 0.00D+00
 HarFok:  IExCor= 205 AccDes= 0.00D+00 IRadAn=         4 IDoV=1
 ScaDFX=  1.000000  1.000000  1.000000  1.000000
 Initial guess orbital symmetries:
       Occupied  (A) (A) (A) (A) (A) (A) (A) (A) (A) (A) (A) (A)
                 (A) (A) (A) (A) (A) (A) (A) (A) (A) (A) (A) (A)
                 (A) (A) (A) (A) (A) (A) (A) (A) (A) (A) (A) (A)
                 (A) (A) (A) (A) (A) (A) (A) (A) (A) (A) (A) (A)
                 (A)
       Virtual   (A) (A) (A) (A) (A) (A) (A) (A) (A) (A) (A) (A)
                 (A) (A) (A) (A) (A) (A) (A) (A) (A) (A) (A) (A)
                 (A) (A) (A) (A) (A) (A) (A) (A) (A) (A) (A) (A)
                 (A) (A) (A) (A) (A) (A) (A) (A) (A) (A) (A) (A)
                 (A) (A) (A) (A) (A) (A) (A) (A) (A) (A) (A) (A)
                 (A) (A) (A) (A) (A) (A) (A) (A) (A) (A) (A) (A)
                 (A) (A) (A) (A) (A) (A) (A) (A) (A) (A) (A) (A)
                 (A) (A) (A) (A) (A) (A) (A) (A) (A) (A) (A) (A)
                 (A) (A) (A) (A) (A) (A) (A) (A) (A) (A) (A) (A)
                 (A) (A) (A) (A) (A) (A) (A)
 The electronic state of the initial guess is 1-A.
 Requested convergence on RMS density matrix=1.00D-08 within 128 cycles.
 Requested convergence on MAX density matrix=1.00D-06.
 Requested convergence on             energy=1.00D-06.
 No special actions if energy rises.
 Integral accuracy reduced to 1.0D-05 until final iterations.
 Initial convergence to 1.0D-05 achieved.  Increase integral accuracy.
 SCF Done:  E(RHF) =  -1244.97663316     A.U. after   13 cycles
             Convg  =    0.7138D-08             -V/T =  2.0015
             S**2   =   0.0000

 **********************************************************************

            Population analysis using the SCF density.

 **********************************************************************

 Orbital symmetries:
 BldTbl:  Degeneracy threshold= 1.00D-02
       Occupied  (A) (A) (A) (A) (A) (A) (A) (A) (A) (A) (A) (A)
                 (A) (A) (A) (A) (A) (A) (A) (A) (A) (A) (A) (A)
                 (A) (A) (A) (A) (A) (A) (A) (A) (A) (A) (A) (A)
                 (A) (A) (A) (A) (A) (A) (A) (A) (A) (A) (A) (A)
                 (A)
       Virtual   (A) (A) (A) (A) (A) (A) (A) (A) (A) (A) (A) (A)
                 (A) (A) (A) (A) (A) (A) (A) (A) (A) (A) (A) (A)
                 (A) (A) (A) (A) (A) (A) (A) (A) (A) (A) (A) (A)
                 (A) (A) (A) (A) (A) (A) (A) (A) (A) (A) (A) (A)
                 (A) (A) (A) (A) (A) (A) (A) (A) (A) (A) (A) (A)
                 (A) (A) (A) (A) (A) (A) (A) (A) (A) (A) (A) (A)
                 (A) (A) (A) (A) (A) (A) (A) (A) (A) (A) (A) (A)
                 (A) (A) (A) (A) (A) (A) (A) (A) (A) (A) (A) (A)
                 (A) (A) (A) (A) (A) (A) (A) (A) (A) (A) (A) (A)
                 (A) (A) (A) (A) (A) (A) (A)
 The electronic state is 1-A.
 Alpha  occ. eigenvalues --  -79.59643 -79.54038 -20.11934 -20.06305 -20.02352
 Alpha  occ. eigenvalues --  -20.01805 -19.97627 -19.97222 -19.97185 -10.85063
 Alpha  occ. eigenvalues --   -7.11655  -7.06010  -5.01600  -5.01496  -5.01419
 Alpha  occ. eigenvalues --   -4.95992  -4.95766  -4.95760  -0.93614  -0.87098
 Alpha  occ. eigenvalues --   -0.82168  -0.78510  -0.77436  -0.72246  -0.72070
 Alpha  occ. eigenvalues --   -0.50937  -0.33380  -0.25057  -0.20480  -0.19478
 Alpha  occ. eigenvalues --   -0.15099  -0.13244  -0.11511  -0.09125  -0.07181
 Alpha  occ. eigenvalues --   -0.05847  -0.03042  -0.02293  -0.02159  -0.01115
 Alpha  occ. eigenvalues --    0.00784   0.03802   0.04070   0.04581   0.04645
 Alpha  occ. eigenvalues --    0.05886   0.09691   0.09718   0.12253
 Alpha virt. eigenvalues --    0.64931   0.69837   0.71418   0.75480   0.77192
 Alpha virt. eigenvalues --    0.81470   0.82496   0.84753   0.85423   0.86747
 Alpha virt. eigenvalues --    0.88571   0.90993   0.95439   1.01108   1.06701
 Alpha virt. eigenvalues --    1.08317   1.11137   1.14119   1.14547   1.17652
 Alpha virt. eigenvalues --    1.19328   1.23088   1.26654   1.39659   1.42641
 Alpha virt. eigenvalues --    1.46436   1.47667   1.50472   1.53154   1.54334
 Alpha virt. eigenvalues --    1.56056   1.57313   1.57783   1.58601   1.65097
 Alpha virt. eigenvalues --    1.68791   1.72193   1.73753   1.75350   1.79367
 Alpha virt. eigenvalues --    1.80953   1.82371   1.83721   1.85116   1.85561
 Alpha virt. eigenvalues --    1.87083   1.88150   1.90937   1.92551   1.97580
 Alpha virt. eigenvalues --    1.99854   2.02052   2.03477   2.04257   2.06584
 Alpha virt. eigenvalues --    2.08683   2.11488   2.12099   2.13547   2.18401
 Alpha virt. eigenvalues --    2.22663   2.24059   2.25448   2.32116   2.37316
 Alpha virt. eigenvalues --    2.38065   2.44154   2.54727   2.56690   2.59472
 Alpha virt. eigenvalues --    2.60414   2.61894   2.62224   2.62392   2.63471
 Alpha virt. eigenvalues --    2.64930   2.64964   2.66112   2.67254   2.67451
 Alpha virt. eigenvalues --    2.69576   2.72355   2.78619   2.81401   2.82877
 Alpha virt. eigenvalues --    2.87529   2.91976   2.92783   2.94430   2.99738
 Alpha virt. eigenvalues --    3.05045   3.13035   3.14509   3.16111   3.17690
 Alpha virt. eigenvalues --    3.20319   3.22679   3.33657   3.52416   3.56871
 Alpha virt. eigenvalues --    3.62316   3.70906   3.72198   3.73596   3.79279
 Alpha virt. eigenvalues --    4.35739   4.40513   4.62177   4.66358   4.70843
 Alpha virt. eigenvalues --    4.72971   4.81576   4.88251   4.97456   5.15704
          Condensed to atoms (all electrons):
              1          2          3          4          5          6
     1  C    4.966080   0.350763   0.345454   0.364248   0.212353  -0.001979
     2  H    0.350763   0.753752  -0.026103  -0.056629  -0.042415   0.000070
     3  H    0.345454  -0.026103   0.375754  -0.028206  -0.024246  -0.000727
     4  H    0.364248  -0.056629  -0.028206   0.686964  -0.042173   0.006638
     5  O    0.212353  -0.042415  -0.024246  -0.042173   8.544027  -0.042671
     6  O   -0.001979   0.000070  -0.000727   0.006638  -0.042671   8.442179
     7  O   -0.000038   0.000000  -0.000088   0.000002  -0.000002  -0.000006
     8  O    0.000694  -0.000046  -0.000047  -0.000065  -0.040872  -0.040578
     9  O   -0.039466   0.000741   0.056905   0.000787   0.000488  -0.000013
    10  O    0.001960   0.000036   0.004229  -0.000347  -0.038127  -0.037896
    11  O    0.000008   0.000000  -0.000392  -0.000001  -0.000020  -0.000001
    12  P   -0.015020   0.001176  -0.004790  -0.005114   0.234029   0.580120
    13  P   -0.002645   0.000041  -0.007494   0.000647   0.003386  -0.000943
              7          8          9         10         11         12
     1  C   -0.000038   0.000694  -0.039466   0.001960   0.000008  -0.015020
     2  H    0.000000  -0.000046   0.000741   0.000036   0.000000   0.001176
     3  H   -0.000088  -0.000047   0.056905   0.004229  -0.000392  -0.004790
     4  H    0.000002  -0.000065   0.000787  -0.000347  -0.000001  -0.005114
     5  O   -0.000002  -0.040872   0.000488  -0.038127  -0.000020   0.234029
     6  O   -0.000006  -0.040578  -0.000013  -0.037896  -0.000001   0.580120
     7  O    8.500407  -0.000001  -0.045492  -0.036174  -0.045767  -0.001546
     8  O   -0.000001   8.405353  -0.000002  -0.037729  -0.000001   0.592976
     9  O   -0.045492  -0.000002   8.577313  -0.037517  -0.046173   0.000375
    10  O   -0.036174  -0.037729  -0.037517   8.598591  -0.036497   0.336122
    11  O   -0.045767  -0.000001  -0.046173  -0.036497   8.500619  -0.001057
    12  P   -0.001546   0.592976   0.000375   0.336122  -0.001057  11.749727
    13  P    0.554537  -0.002372   0.487203   0.145465   0.555192  -0.003245
             13
     1  C   -0.002645
     2  H    0.000041
     3  H   -0.007494
     4  H    0.000647
     5  O    0.003386
     6  O   -0.000943
     7  O    0.554537
     8  O   -0.002372
     9  O    0.487203
    10  O    0.145465
    11  O    0.555192
    12  P   -0.003245
    13  P   11.811402
 Mulliken atomic charges:
              1
     1  C   -0.182412
     2  H    0.018613
     3  H    0.309750
     4  H    0.073248
     5  O   -0.763757
     6  O   -0.904195
     7  O   -0.925832
     8  O   -0.877311
     9  O   -0.955149
    10  O   -0.862115
    11  O   -0.925911
    12  P    1.536245
    13  P    1.458824
 Sum of Mulliken charges=  -3.00000
 Atomic charges with hydrogens summed into heavy atoms:
              1
     1  C    0.219200
     2  H    0.000000
     3  H    0.000000
     4  H    0.000000
     5  O   -0.763757
     6  O   -0.904195
     7  O   -0.925832
     8  O   -0.877311
     9  O   -0.955149
    10  O   -0.862115
    11  O   -0.925911
    12  P    1.536245
    13  P    1.458824
 Sum of Mulliken charges=  -3.00000
 Entering OneElI...
 OneElI was handed  6248092 working-precision words.
 Multipole integrals L=0 to 4 MinM= 0 MaxM= 0.
 Requested accuracy = 0.1000D-12
 PrsmSu:  NPrtUS=   1 ThrOK=F
 PRISM was handed     6150206 working-precision words and  1043 shell-pairs
 Electronic moments (au):
   -98.00000000    -1.87328772     1.68135168    -0.13686650
 -1144.87245156  -436.84234086  -264.66478683    -4.57634697
     0.56333754    -0.80716095  -622.89739891  -651.25724436
   -66.45785513   454.73488912   392.23398502     1.15643562
   -53.93774636   188.65094785    88.47545567    39.58989878
-18836.63697397 -5885.97194559 -2038.11920290    99.54899906
   -11.80879035   511.30808264  -185.24530296   717.23576926
    66.76922012 -4636.70717278 -4172.58579331  -966.72422697
     0.77437016  -782.20861276   165.75790855
 Electronic spatial extent (au):  <R**2>=  1846.3796
 Nuclear    moments (au):
    95.00000000     0.00000000     0.00000000     0.00000000
  1036.42286164   365.12263697   190.50175667     0.00000000
     0.00011894     0.00004372   577.40184510   640.96492293
    59.31259721  -454.60832573  -352.35882244    -3.00723512
    43.87407679  -170.38724217   -81.59692721   -33.89512355
 14079.30288742  4206.11495193  1062.08905015   -88.22680480
    21.22494830  -579.17948479   157.64154368  -644.10477489
   -59.43167189  3480.51141918  3062.93827130   522.78923001
    -3.76990105   710.77353606  -149.81864183
 Total      moments (au):
    -3.00000000    -1.87328772     1.68135168    -0.13686650
  -108.44958992   -71.71970390   -74.16303016    -4.57634697
     0.56345648    -0.80711723   -45.49555381   -10.29232143
    -7.14525792     0.12656340    39.87516258    -1.85079950
   -10.06366957    18.26370569     6.87852846     5.69477522
 -4757.33408655 -1679.85699367  -976.03015275    11.32219425
     9.41615796   -67.87140215   -27.60375928    73.13099437
     7.33754823 -1156.19575360 -1109.64752201  -443.93499695
    -2.99553089   -71.43507670    15.93926671
 Charge=    -3.0000 electrons
 Dipole moment (field-independent basis, Debye):
    X=    -4.7614    Y=     4.2736    Z=    -0.3479  Tot=     6.4075
 Quadrupole moment (field-independent basis, Debye-Ang):
   XX=  -145.8684   YY=   -96.4655   ZZ=   -99.7518
   XY=    -6.1553   XZ=     0.7579   YZ=    -1.0856
 Traceless Quadrupole moment (field-independent basis, Debye-Ang):
   XX=   -31.8398   YY=    17.5631   ZZ=    14.2767
   XY=    -6.1553   XZ=     0.7579   YZ=    -1.0856
 Octapole moment (field-independent basis, Debye-Ang**2):
  XXX=   -32.3820  YYY=    -7.3257  ZZZ=    -5.0857  XYY=     0.0901
  XXY=    28.3816  XXZ=    -1.3173  XZZ=    -7.1629  YZZ=    12.9994
  YYZ=     4.8959  XYZ=     4.0533
 Hexadecapole moment (field-independent basis, Debye-Ang**3):
 XXXX= -1791.8400 YYYY=  -632.7146 ZZZZ=  -367.6197 XXXY=     4.2645
 XXXZ=     3.5466 YYYX=   -25.5636 YYYZ=   -10.3969 ZZZX=    27.5446
 ZZZY=     2.7637 XXYY=  -435.4787 XXZZ=  -417.9464 YYZZ=  -167.2072
 XXYZ=    -1.1283 YYXZ=   -26.9059 ZZXY=     6.0035
 N-N= 8.316874038589D+02 E-N=-4.673405881081D+03  KE= 1.243088461281D+03
 Entering OneElI...
 OneElI was handed  6193811 working-precision words.
 Calculate electrostatic properties
    NBasis =   164  MinDer = 0  MaxDer = 0
    NGrid  =    13  NMatD  =   1
 Requested accuracy = 0.1000D-12
 PrsmSu:  NPrtUS=   1 ThrOK=F
 PRISM was handed     6100790 working-precision words and  1002 shell-pairs
 --------------------------------------------------------
       Center         ----      EFG at Nuclei      ----
                      3XX-RR        3YY-RR        3ZZ-RR
 --------------------------------------------------------
     1   Atom        0.313652     -0.292634     -0.021018
     2   Atom        0.147429     -0.141807     -0.005622
     3   Atom       -0.218335      0.098962      0.119373
     4   Atom        0.086604      0.130032     -0.216636
     5   Atom        0.888330     -1.529156      0.640825
     6   Atom        0.303526      0.398460     -0.701986
     7   Atom        0.124957      0.171511     -0.296468
     8   Atom        0.225726     -0.229939      0.004212
     9   Atom        0.357812     -0.936284      0.578472
    10   Atom       -1.492111      0.630817      0.861293
    11   Atom        0.182069      0.476305     -0.658373
    12   Atom       -0.265375     -0.318901      0.584276
    13   Atom       -1.090754      0.404713      0.686042
 --------------------------------------------------------
                        XY            XZ            YZ
 --------------------------------------------------------
     1   Atom       -0.186546     -0.059565     -0.121210
     2   Atom        0.068676     -0.058523      0.210378
     3   Atom        0.030961     -0.031588     -0.001439
     4   Atom        0.031217      0.168823     -0.085150
     5   Atom       -0.583221     -0.722084     -0.328142
     6   Atom        0.071167      0.498888     -0.053184
     7   Atom        0.244346     -0.476682      0.585425
     8   Atom       -0.364501     -0.437107     -0.533464
     9   Atom        0.031813     -0.006068     -0.241272
    10   Atom       -0.245839      0.047645      0.029179
    11   Atom        0.068456      0.481617     -0.329311
    12   Atom        0.351765     -0.094068      0.554047
    13   Atom       -0.500964     -0.021435     -0.033889
 --------------------------------------------------------


 ---------------------------------------------------------------------------------
              Nuclear Quadrupole in Principal Axis System
 ---------------------------------------------------------------------------------

       Atom             a.u.   MegaHertz   Gauss  10(-4) cm-1        Axes

              Baa    -0.3930   -52.734   -18.817   -17.590  0.2668  0.9029  0.3370
     1 C(13)  Bbb     0.0249     3.343     1.193     1.115 -0.0274 -0.3424  0.9392
              Bcc     0.3681    49.392    17.624    16.475  0.9634 -0.2598 -0.0666
 
              Baa    -0.3124  -166.704   -59.484   -55.606 -0.1920  0.7919 -0.5796
     2 H(1)   Bbb     0.1451    77.415    27.624    25.823  0.3163  0.6091  0.7273
              Bcc     0.1673    89.289    31.860    29.783  0.9290 -0.0437 -0.3674
 
              Baa    -0.2242  -119.612   -42.681   -39.898  0.9914 -0.0946  0.0908
     3 H(1)   Bbb     0.1010    53.899    19.233    17.979  0.0744  0.9760  0.2046
              Bcc     0.1232    65.713    23.448    21.919 -0.1079 -0.1960  0.9746
 
              Baa    -0.3105  -165.677   -59.118   -55.264 -0.3966  0.2012  0.8957
     4 H(1)   Bbb     0.1463    78.046    27.849    26.033  0.4064  0.9133 -0.0252
              Bcc     0.1642    87.631    31.269    29.231  0.8231 -0.3540  0.4440
 
              Baa    -1.7647   127.691    45.563    42.593  0.2636  0.9420  0.2076
     5 O(17)  Bbb     0.2477   -17.927    -6.397    -5.980  0.5618 -0.3249  0.7608
              Bcc     1.5169  -109.764   -39.167   -36.613  0.7842 -0.0839 -0.6149
 
              Baa    -0.9120    65.988    23.546    22.011 -0.3820  0.0582  0.9223
     6 O(17)  Bbb     0.3861   -27.937    -9.969    -9.319 -0.2996  0.9363 -0.1832
              Bcc     0.5259   -38.051   -13.578   -12.692  0.8742  0.3463  0.3402
 
              Baa    -0.9553    69.126    24.666    23.058  0.4424 -0.4871  0.7530
     7 O(17)  Bbb     0.3697   -26.752    -9.546    -8.923  0.8582  0.4737 -0.1978
              Bcc     0.5856   -42.374   -15.120   -14.134 -0.2603  0.7337  0.6276
 
              Baa    -0.9305    67.328    24.024    22.458  0.4372  0.6777  0.5912
     8 O(17)  Bbb     0.3599   -26.043    -9.293    -8.687 -0.5245  0.7262 -0.4445
              Bcc     0.5706   -41.286   -14.732   -13.771  0.7306  0.1158 -0.6729
 
              Baa    -0.9745    70.513    25.161    23.521 -0.0229  0.9879  0.1534
     9 O(17)  Bbb     0.3581   -25.908    -9.245    -8.642  0.9988  0.0161  0.0452
              Bcc     0.6164   -44.605   -15.916   -14.878 -0.0421 -0.1543  0.9871
 
              Baa    -1.5213   110.079    39.279    36.718  0.9933  0.1138 -0.0213
    10 O(17)  Bbb     0.6562   -47.483   -16.943   -15.839 -0.1154  0.9868 -0.1136
              Bcc     0.8651   -62.596   -22.336   -20.880  0.0081  0.1153  0.9933
 
              Baa    -0.9529    68.949    24.603    22.999 -0.3921  0.2243  0.8921
    11 O(17)  Bbb     0.3723   -26.936    -9.611    -8.985  0.8838  0.3608  0.2977
              Bcc     0.5806   -42.013   -14.991   -14.014 -0.2551  0.9053 -0.3398
 
              Baa    -0.8161  -176.420   -62.951   -58.847 -0.5468  0.7653 -0.3395
    12 P(31)  Bbb    -0.0356    -7.703    -2.749    -2.569  0.8348  0.4674 -0.2910
              Bcc     0.8517   184.123    65.699    61.417  0.0641  0.4426  0.8944
 
              Baa    -1.2435  -268.833   -95.926   -89.673  0.9566  0.2911  0.0157
    13 P(31)  Bbb     0.5519   119.317    42.575    39.800 -0.2886  0.9382  0.1909
              Bcc     0.6916   149.516    53.351    49.873  0.0408 -0.1872  0.9815
 

 ---------------------------------------------------------------------------------

 No NMR shielding tensors so no spin-rotation constants.
 Leave Link  601 at Tue May  4 21:09:56 2004, MaxMem=    6291456 cpu:       0.3
 Merz-Kollman atomic radii used.
 Atom Element Radius
    1     6    1.50
    2     1    1.20
    3     1    1.20
    4     1    1.20
    5     8    1.40
    6     8    1.40
    7     8    1.40
    8     8    1.40
    9     8    1.40
   10     8    1.40
   11     8    1.40
   12    15    1.80
   13    15    1.80
 Generate VDW surfaces: Layer= 4 Dens= 1 Start= 1.400 Inc= 0.200

 **********************************************************************

            Electrostatic Properties Using The SCF Density

 **********************************************************************

       Atomic Center    1 is at  -1.184004  2.107994 -0.040949
       Atomic Center    2 is at  -1.397072  2.969053 -0.682706
       Atomic Center    3 is at  -0.107230  1.960337  0.058463
       Atomic Center    4 is at  -1.617627  2.300516  0.941683
       Atomic Center    5 is at  -1.802390  0.950176 -0.641056
       Atomic Center    6 is at  -1.949941 -0.455615  1.441349
       Atomic Center    7 is at   2.357169 -0.842237  1.147046
       Atomic Center    8 is at  -2.046320 -1.526971 -0.877330
       Atomic Center    9 is at   1.705137  1.441239  0.238148
       Atomic Center   10 is at   0.121274 -0.519799 -0.022429
       Atomic Center   11 is at   2.278921 -0.444357 -1.365189
       Atomic Center   12 is at  -1.439799 -0.516553  0.037439
       Atomic Center   13 is at   1.767476 -0.063270  0.000157
      ESP Fit Center   14 is at  -0.134004  2.107994  1.777704
      ESP Fit Center   15 is at  -0.659004  1.198667  1.777704
      ESP Fit Center   16 is at  -0.428508  3.762299  1.009051
      ESP Fit Center   17 is at   0.008932  3.836260 -0.040949
      ESP Fit Center   18 is at  -3.222982  2.610557 -0.040949
      ESP Fit Center   19 is at  -0.134004  2.107994 -1.859602
      ESP Fit Center   20 is at  -1.184004  2.107994 -2.140949
      ESP Fit Center   21 is at  -0.173106  3.996083 -0.163557
      ESP Fit Center   22 is at  -1.119622  4.542554 -0.163557
      ESP Fit Center   23 is at  -2.195960  4.352766 -0.163557
      ESP Fit Center   24 is at  -2.898490  3.515524 -0.163557
      ESP Fit Center   25 is at  -0.173106  3.996083 -1.201855
      ESP Fit Center   26 is at  -1.119622  4.542554 -1.201855
      ESP Fit Center   27 is at  -2.195960  4.352766 -1.201855
      ESP Fit Center   28 is at  -2.898490  3.515524 -1.201855
      ESP Fit Center   29 is at  -0.409593  2.969053 -2.041855
      ESP Fit Center   30 is at  -1.091924  3.908201 -2.041855
      ESP Fit Center   31 is at  -2.195960  3.549478 -2.041855
      ESP Fit Center   32 is at  -2.195960  2.388627 -2.041855
      ESP Fit Center   33 is at  -1.397072  2.969053 -2.362706
      ESP Fit Center   34 is at   0.197918  2.899485  1.417612
      ESP Fit Center   35 is at  -1.617627  2.300516  2.621683
      ESP Fit Center   36 is at  -0.630148  2.300516  2.300832
      ESP Fit Center   37 is at  -1.312479  3.239664  2.300832
      ESP Fit Center   38 is at  -2.416515  2.880941  2.300832
      ESP Fit Center   39 is at  -2.416515  1.720090  2.300832
      ESP Fit Center   40 is at  -1.312479  1.361367  2.300832
      ESP Fit Center   41 is at  -1.340176  3.874017  1.460832
      ESP Fit Center   42 is at  -2.416515  3.684229  1.460832
      ESP Fit Center   43 is at  -3.119045  2.846987  1.460832
      ESP Fit Center   44 is at  -3.119045  1.754045  1.460832
      ESP Fit Center   45 is at  -3.119045  2.846987  0.422534
      ESP Fit Center   46 is at  -3.499800  0.950176  0.338944
      ESP Fit Center   47 is at  -3.499800  1.930176 -0.641056
      ESP Fit Center   48 is at  -3.762390  0.950176 -0.641056
      ESP Fit Center   49 is at  -0.104980  0.950176 -1.621056
      ESP Fit Center   50 is at  -3.175623  1.947888 -1.621056
      ESP Fit Center   51 is at  -3.499800  0.950176 -1.621056
      ESP Fit Center   52 is at  -0.822390  0.950176 -2.338466
      ESP Fit Center   53 is at  -1.312390  1.798881 -2.338466
      ESP Fit Center   54 is at  -2.292390  1.798881 -2.338466
      ESP Fit Center   55 is at  -2.782390  0.950176 -2.338466
      ESP Fit Center   56 is at  -2.292390  0.101471 -2.338466
      ESP Fit Center   57 is at  -1.802390  0.950176 -2.601056
      ESP Fit Center   58 is at  -1.949941 -0.455615  3.401349
      ESP Fit Center   59 is at  -0.969941 -0.455615  3.138759
      ESP Fit Center   60 is at  -1.459941  0.393090  3.138759
      ESP Fit Center   61 is at  -2.439941  0.393090  3.138759
      ESP Fit Center   62 is at  -2.929941 -0.455615  3.138759
      ESP Fit Center   63 is at  -2.439941 -1.304320  3.138759
      ESP Fit Center   64 is at  -1.459941 -1.304320  3.138759
      ESP Fit Center   65 is at  -0.252531 -0.455615  2.421349
      ESP Fit Center   66 is at  -0.576708  0.542097  2.421349
      ESP Fit Center   67 is at  -1.425413  1.158717  2.421349
      ESP Fit Center   68 is at  -2.474469  1.158717  2.421349
      ESP Fit Center   69 is at  -3.323174  0.542097  2.421349
      ESP Fit Center   70 is at  -3.647351 -0.455615  2.421349
      ESP Fit Center   71 is at  -3.323174 -1.453328  2.421349
      ESP Fit Center   72 is at  -2.474469 -2.069948  2.421349
      ESP Fit Center   73 is at  -1.425413 -2.069948  2.421349
      ESP Fit Center   74 is at  -0.576708 -1.453328  2.421349
      ESP Fit Center   75 is at  -2.929941  1.241795  1.441349
      ESP Fit Center   76 is at  -3.647351  0.524385  1.441349
      ESP Fit Center   77 is at  -3.909941 -0.455615  1.441349
      ESP Fit Center   78 is at  -3.647351 -1.435615  1.441349
      ESP Fit Center   79 is at  -2.929941 -2.153025  1.441349
      ESP Fit Center   80 is at   2.357169 -0.842237  3.107046
      ESP Fit Center   81 is at   3.337169 -0.842237  2.844456
      ESP Fit Center   82 is at   2.847169  0.006468  2.844456
      ESP Fit Center   83 is at   1.867169  0.006468  2.844456
      ESP Fit Center   84 is at   1.377169 -0.842237  2.844456
      ESP Fit Center   85 is at   1.867169 -1.690942  2.844456
      ESP Fit Center   86 is at   2.847169 -1.690942  2.844456
      ESP Fit Center   87 is at   4.054579 -0.842237  2.127046
      ESP Fit Center   88 is at   3.730402  0.155475  2.127046
      ESP Fit Center   89 is at   2.881698  0.772096  2.127046
      ESP Fit Center   90 is at   0.659759 -0.842237  2.127046
      ESP Fit Center   91 is at   0.983936 -1.839949  2.127046
      ESP Fit Center   92 is at   1.832641 -2.456570  2.127046
      ESP Fit Center   93 is at   2.881698 -2.456570  2.127046
      ESP Fit Center   94 is at   3.730402 -1.839949  2.127046
      ESP Fit Center   95 is at   4.317169 -0.842237  1.147046
      ESP Fit Center   96 is at   4.054579  0.137763  1.147046
      ESP Fit Center   97 is at   1.377169 -2.539647  1.147046
      ESP Fit Center   98 is at   2.357169 -2.802237  1.147046
      ESP Fit Center   99 is at   3.337169 -2.539647  1.147046
      ESP Fit Center  100 is at   4.054579 -1.822237  1.147046
      ESP Fit Center  101 is at   2.881698 -2.456570  0.167046
      ESP Fit Center  102 is at   3.730402 -1.839949  0.167046
      ESP Fit Center  103 is at  -3.419553 -2.524684  0.102670
      ESP Fit Center  104 is at  -2.570848 -3.141304  0.102670
      ESP Fit Center  105 is at  -1.521791 -3.141304  0.102670
      ESP Fit Center  106 is at  -4.006320 -1.526971 -0.877330
      ESP Fit Center  107 is at  -3.743730 -2.506971 -0.877330
      ESP Fit Center  108 is at  -3.026320 -3.224381 -0.877330
      ESP Fit Center  109 is at  -2.046320 -3.486971 -0.877330
      ESP Fit Center  110 is at  -1.066320 -3.224381 -0.877330
      ESP Fit Center  111 is at  -3.419553 -0.529259 -1.857330
      ESP Fit Center  112 is at  -3.743730 -1.526971 -1.857330
      ESP Fit Center  113 is at  -3.419553 -2.524684 -1.857330
      ESP Fit Center  114 is at  -2.570848 -3.141304 -1.857330
      ESP Fit Center  115 is at  -1.521791 -3.141304 -1.857330
      ESP Fit Center  116 is at  -0.673087 -2.524684 -1.857330
      ESP Fit Center  117 is at  -1.066320 -1.526971 -2.574740
      ESP Fit Center  118 is at  -1.556320 -0.678266 -2.574740
      ESP Fit Center  119 is at  -2.536320 -0.678266 -2.574740
      ESP Fit Center  120 is at  -3.026320 -1.526971 -2.574740
      ESP Fit Center  121 is at  -2.536320 -2.375676 -2.574740
      ESP Fit Center  122 is at  -1.556320 -2.375676 -2.574740
      ESP Fit Center  123 is at  -2.046320 -1.526971 -2.837330
      ESP Fit Center  124 is at   1.705137  1.441239  2.198148
      ESP Fit Center  125 is at   2.685137  1.441239  1.935558
      ESP Fit Center  126 is at   2.195137  2.289944  1.935558
      ESP Fit Center  127 is at   1.215137  2.289944  1.935558
      ESP Fit Center  128 is at   0.725137  1.441239  1.935558
      ESP Fit Center  129 is at   3.402547  1.441239  1.218148
      ESP Fit Center  130 is at   3.078370  2.438951  1.218148
      ESP Fit Center  131 is at   2.229665  3.055572  1.218148
      ESP Fit Center  132 is at   1.180608  3.055572  1.218148
      ESP Fit Center  133 is at   3.402547  2.421239  0.238148
      ESP Fit Center  134 is at   2.685137  3.138649  0.238148
      ESP Fit Center  135 is at   1.705137  3.401239  0.238148
      ESP Fit Center  136 is at   3.078370  2.438951 -0.741852
      ESP Fit Center  137 is at   2.229665  3.055572 -0.741852
      ESP Fit Center  138 is at   1.180608  3.055572 -0.741852
      ESP Fit Center  139 is at   2.195137  2.289944 -1.459262
      ESP Fit Center  140 is at   1.215137  2.289944 -1.459262
      ESP Fit Center  141 is at   0.645802 -2.134132  0.957571
      ESP Fit Center  142 is at   0.645802 -2.134132 -1.002429
      ESP Fit Center  143 is at   0.121274 -0.519799 -1.982429
      ESP Fit Center  144 is at   4.238921 -0.444357 -1.365189
      ESP Fit Center  145 is at   3.976331  0.535643 -1.365189
      ESP Fit Center  146 is at   1.298921 -2.141767 -1.365189
      ESP Fit Center  147 is at   2.278921 -2.404357 -1.365189
      ESP Fit Center  148 is at   3.258921 -2.141767 -1.365189
      ESP Fit Center  149 is at   3.976331 -1.424357 -1.365189
      ESP Fit Center  150 is at   3.976331 -0.444357 -2.345189
      ESP Fit Center  151 is at   3.652154  0.553355 -2.345189
      ESP Fit Center  152 is at   2.803449  1.169976 -2.345189
      ESP Fit Center  153 is at   1.754393  1.169976 -2.345189
      ESP Fit Center  154 is at   0.905688  0.553355 -2.345189
      ESP Fit Center  155 is at   0.581511 -0.444357 -2.345189
      ESP Fit Center  156 is at   0.905688 -1.442069 -2.345189
      ESP Fit Center  157 is at   1.754393 -2.058690 -2.345189
      ESP Fit Center  158 is at   2.803449 -2.058690 -2.345189
      ESP Fit Center  159 is at   3.652154 -1.442069 -2.345189
      ESP Fit Center  160 is at   3.258921 -0.444357 -3.062599
      ESP Fit Center  161 is at   2.768921  0.404348 -3.062599
      ESP Fit Center  162 is at   1.788921  0.404348 -3.062599
      ESP Fit Center  163 is at   1.298921 -0.444357 -3.062599
      ESP Fit Center  164 is at   1.788921 -1.293062 -3.062599
      ESP Fit Center  165 is at   2.768921 -1.293062 -3.062599
      ESP Fit Center  166 is at   2.278921 -0.444357 -3.325189
      ESP Fit Center  167 is at  -1.720190 -2.466715  1.608633
      ESP Fit Center  168 is at  -0.621342 -2.308724  1.608633
      ESP Fit Center  169 is at  -3.653316  0.549420  0.598192
      ESP Fit Center  170 is at  -3.896617 -0.516553  0.598192
      ESP Fit Center  171 is at  -3.653316 -1.582527  0.598192
      ESP Fit Center  172 is at  -2.971600 -2.437371  0.598192
      ESP Fit Center  173 is at  -1.986492 -2.911774  0.598192
      ESP Fit Center  174 is at  -0.893105 -2.911774  0.598192
      ESP Fit Center  175 is at   0.092002 -2.437371  0.598192
      ESP Fit Center  176 is at  -3.896617 -0.516553 -0.523314
      ESP Fit Center  177 is at   0.092002 -2.437371 -0.523314
      ESP Fit Center  178 is at  -3.330207  0.038521 -1.533755
      ESP Fit Center  179 is at  -0.346412 -0.516553 -2.233003
      ESP Fit Center  180 is at  -1.439799 -0.516553 -2.482561
      ESP Fit Center  181 is at   2.314169  0.883631  2.270599
      ESP Fit Center  182 is at   1.220782  0.883631  2.270599
      ESP Fit Center  183 is at   0.674089 -0.063270  2.270599
      ESP Fit Center  184 is at   3.424927  1.001909  1.571351
      ESP Fit Center  185 is at   4.224294 -0.063270  0.560910
      ESP Fit Center  186 is at   3.980993  1.002704  0.560910
      ESP Fit Center  187 is at   1.220782 -2.458491  0.560910
      ESP Fit Center  188 is at   4.224294 -0.063270 -0.560596
      ESP Fit Center  189 is at   3.980993  1.002704 -0.560596
      ESP Fit Center  190 is at   1.220782 -2.458491 -0.560596
      ESP Fit Center  191 is at   2.314169 -2.458491 -0.560596
      ESP Fit Center  192 is at   3.299277 -1.984088 -0.560596
      ESP Fit Center  193 is at   3.980993 -1.129244 -0.560596
      ESP Fit Center  194 is at   2.585933  1.728901 -1.571037
      ESP Fit Center  195 is at   0.477259  1.425719 -1.571037
      ESP Fit Center  196 is at  -0.404521  3.814823  1.455427
      ESP Fit Center  197 is at   0.274854  3.937344  0.493101
      ESP Fit Center  198 is at  -0.663344  4.389156  0.493101
      ESP Fit Center  199 is at  -2.642862  3.937344  0.493101
      ESP Fit Center  200 is at  -3.523831  2.107994  0.493101
      ESP Fit Center  201 is at   0.274854  3.937344 -0.574999
      ESP Fit Center  202 is at   0.394520  3.122450 -1.537325
      ESP Fit Center  203 is at  -0.142683  2.107994 -2.203274
      ESP Fit Center  204 is at  -0.883248  4.550440  0.277294
      ESP Fit Center  205 is at  -1.910896  4.550440  0.277294
      ESP Fit Center  206 is at  -2.742280  3.946404  0.277294
      ESP Fit Center  207 is at   0.265697  3.929053 -0.682706
      ESP Fit Center  208 is at  -0.437072  4.631822 -0.682706
      ESP Fit Center  209 is at  -1.397072  4.889053 -0.682706
      ESP Fit Center  210 is at  -2.357072  4.631822 -0.682706
      ESP Fit Center  211 is at  -3.059841  3.929053 -0.682706
      ESP Fit Center  212 is at  -0.051864  3.946404 -1.642706
      ESP Fit Center  213 is at  -0.883248  4.550440 -1.642706
      ESP Fit Center  214 is at  -1.910896  4.550440 -1.642706
      ESP Fit Center  215 is at  -2.742280  3.946404 -1.642706
      ESP Fit Center  216 is at  -3.059841  2.969053 -1.642706
      ESP Fit Center  217 is at  -0.437072  2.969053 -2.345475
      ESP Fit Center  218 is at  -0.917072  3.800437 -2.345475
      ESP Fit Center  219 is at  -1.877072  3.800437 -2.345475
      ESP Fit Center  220 is at  -2.357072  2.969053 -2.345475
      ESP Fit Center  221 is at  -1.397072  2.969053 -2.602706
      ESP Fit Center  222 is at   0.372770  2.791721  1.721232
      ESP Fit Center  223 is at   0.852770  3.623106  0.058463
      ESP Fit Center  224 is at  -1.617627  2.300516  2.861683
      ESP Fit Center  225 is at  -0.657627  2.300516  2.604452
      ESP Fit Center  226 is at  -1.137627  3.131900  2.604452
      ESP Fit Center  227 is at  -2.097627  3.131900  2.604452
      ESP Fit Center  228 is at  -2.577627  2.300516  2.604452
      ESP Fit Center  229 is at  -2.097627  1.469131  2.604452
      ESP Fit Center  230 is at  -1.137627  1.469131  2.604452
      ESP Fit Center  231 is at  -0.272419  3.277867  1.901683
      ESP Fit Center  232 is at  -1.103803  3.881903  1.901683
      ESP Fit Center  233 is at  -2.131451  3.881903  1.901683
      ESP Fit Center  234 is at  -2.962835  3.277867  1.901683
      ESP Fit Center  235 is at  -3.280396  2.300516  1.901683
      ESP Fit Center  236 is at  -2.577627  3.963285  0.941683
      ESP Fit Center  237 is at  -3.280396  3.260516  0.941683
      ESP Fit Center  238 is at  -3.537627  2.300516  0.941683
      ESP Fit Center  239 is at  -3.922770  1.472803 -0.142609
      ESP Fit Center  240 is at  -3.437017  2.398329 -1.139503
      ESP Fit Center  241 is at  -3.922770  1.472803 -1.139503
      ESP Fit Center  242 is at  -3.922770  0.427549 -1.139503
      ESP Fit Center  243 is at  -0.051088  0.950176 -2.037673
      ESP Fit Center  244 is at  -3.219224  1.979566 -2.037673
      ESP Fit Center  245 is at  -3.553693  0.950176 -2.037673
      ESP Fit Center  246 is at  -0.830491  0.950176 -2.659226
      ESP Fit Center  247 is at  -1.316440  1.791865 -2.659226
      ESP Fit Center  248 is at  -2.288340  1.791865 -2.659226
      ESP Fit Center  249 is at  -2.774290  0.950176 -2.659226
      ESP Fit Center  250 is at  -2.288340  0.108486 -2.659226
      ESP Fit Center  251 is at  -1.802390  0.950176 -2.881056
      ESP Fit Center  252 is at  -1.949941 -0.455615  3.681349
      ESP Fit Center  253 is at  -0.978041 -0.455615  3.459519
      ESP Fit Center  254 is at  -1.463991  0.386074  3.459519
      ESP Fit Center  255 is at  -2.435891  0.386074  3.459519
      ESP Fit Center  256 is at  -2.921841 -0.455615  3.459519
      ESP Fit Center  257 is at  -2.435891 -1.297305  3.459519
      ESP Fit Center  258 is at  -1.463991 -1.297305  3.459519
      ESP Fit Center  259 is at  -0.198638 -0.455615  2.837966
      ESP Fit Center  260 is at  -0.533107  0.573775  2.837966
      ESP Fit Center  261 is at  -1.408759  1.209972  2.837966
      ESP Fit Center  262 is at  -2.491123  1.209972  2.837966
      ESP Fit Center  263 is at  -3.366774  0.573775  2.837966
      ESP Fit Center  264 is at  -3.701244 -0.455615  2.837966
      ESP Fit Center  265 is at  -3.366774 -1.485005  2.837966
      ESP Fit Center  266 is at  -2.491123 -2.121203  2.837966
      ESP Fit Center  267 is at  -1.408759 -2.121203  2.837966
      ESP Fit Center  268 is at  -0.533107 -1.485005  2.837966
      ESP Fit Center  269 is at  -3.584568  0.992538  1.939796
      ESP Fit Center  270 is at  -4.070321  0.067011  1.939796
      ESP Fit Center  271 is at  -4.070321 -0.978242  1.939796
      ESP Fit Center  272 is at  -3.584568 -1.903768  1.939796
      ESP Fit Center  273 is at  -2.724341 -2.497540  1.939796
      ESP Fit Center  274 is at   2.357169 -0.842237  3.387046
      ESP Fit Center  275 is at   3.329069 -0.842237  3.165216
      ESP Fit Center  276 is at   2.843119 -0.000547  3.165216
      ESP Fit Center  277 is at   1.871219 -0.000547  3.165216
      ESP Fit Center  278 is at   1.385269 -0.842237  3.165216
      ESP Fit Center  279 is at   1.871219 -1.683927  3.165216
      ESP Fit Center  280 is at   2.843119 -1.683927  3.165216
      ESP Fit Center  281 is at   4.108472 -0.842237  2.543663
      ESP Fit Center  282 is at   3.774003  0.187153  2.543663
      ESP Fit Center  283 is at   2.898351  0.823351  2.543663
      ESP Fit Center  284 is at   0.605867 -0.842237  2.543663
      ESP Fit Center  285 is at   0.940336 -1.871627  2.543663
      ESP Fit Center  286 is at   1.815987 -2.507825  2.543663
      ESP Fit Center  287 is at   2.898351 -2.507825  2.543663
      ESP Fit Center  288 is at   3.774003 -1.871627  2.543663
      ESP Fit Center  289 is at   4.541008 -0.842237  1.645493
      ESP Fit Center  290 is at   4.290862  0.172643  1.645493
      ESP Fit Center  291 is at   0.722542 -2.290390  1.645493
      ESP Fit Center  292 is at   1.582769 -2.884161  1.645493
      ESP Fit Center  293 is at   2.620402 -3.010153  1.645493
      ESP Fit Center  294 is at   3.597731 -2.639501  1.645493
      ESP Fit Center  295 is at   4.290862 -1.857117  1.645493
      ESP Fit Center  296 is at   4.541008 -0.842237  0.648599
      ESP Fit Center  297 is at   1.582769 -2.884161  0.648599
      ESP Fit Center  298 is at   2.620402 -3.010153  0.648599
      ESP Fit Center  299 is at   3.597731 -2.639501  0.648599
      ESP Fit Center  300 is at   4.290862 -1.857117  0.648599
      ESP Fit Center  301 is at  -3.463153 -2.556361  0.519287
      ESP Fit Center  302 is at  -2.587502 -3.192559  0.519287
      ESP Fit Center  303 is at  -4.166700 -2.049598 -0.378883
      ESP Fit Center  304 is at  -3.680947 -2.975124 -0.378883
      ESP Fit Center  305 is at  -2.820720 -3.568896 -0.378883
      ESP Fit Center  306 is at  -1.783087 -3.694887 -0.378883
      ESP Fit Center  307 is at  -0.805758 -3.324235 -0.378883
      ESP Fit Center  308 is at  -4.166700 -1.004345 -1.375777
      ESP Fit Center  309 is at  -4.166700 -2.049598 -1.375777
      ESP Fit Center  310 is at  -3.680947 -2.975124 -1.375777
      ESP Fit Center  311 is at  -2.820720 -3.568896 -1.375777
      ESP Fit Center  312 is at  -1.783087 -3.694887 -1.375777
      ESP Fit Center  313 is at  -0.805758 -3.324235 -1.375777
      ESP Fit Center  314 is at  -3.463153 -0.497581 -2.273947
      ESP Fit Center  315 is at  -3.797622 -1.526971 -2.273947
      ESP Fit Center  316 is at  -3.463153 -2.556361 -2.273947
      ESP Fit Center  317 is at  -2.587502 -3.192559 -2.273947
      ESP Fit Center  318 is at  -1.505138 -3.192559 -2.273947
      ESP Fit Center  319 is at  -0.629486 -2.556361 -2.273947
      ESP Fit Center  320 is at  -1.074420 -1.526971 -2.895500
      ESP Fit Center  321 is at  -1.560370 -0.685282 -2.895500
      ESP Fit Center  322 is at  -2.532270 -0.685282 -2.895500
      ESP Fit Center  323 is at  -3.018219 -1.526971 -2.895500
      ESP Fit Center  324 is at  -2.532270 -2.368661 -2.895500
      ESP Fit Center  325 is at  -1.560370 -2.368661 -2.895500
      ESP Fit Center  326 is at  -2.046320 -1.526971 -3.117330
      ESP Fit Center  327 is at   1.705137  1.441239  2.478148
      ESP Fit Center  328 is at   2.191087  2.282929  2.256318
      ESP Fit Center  329 is at   1.219187  2.282929  2.256318
      ESP Fit Center  330 is at   0.733237  1.441239  2.256318
      ESP Fit Center  331 is at   3.121970  2.470629  1.634765
      ESP Fit Center  332 is at   2.246319  3.106827  1.634765
      ESP Fit Center  333 is at   1.163955  3.106827  1.634765
      ESP Fit Center  334 is at   3.638830  2.456119  0.736595
      ESP Fit Center  335 is at   2.945699  3.238503  0.736595
      ESP Fit Center  336 is at   1.968370  3.609155  0.736595
      ESP Fit Center  337 is at   0.930737  3.483163  0.736595
      ESP Fit Center  338 is at   3.638830  2.456119 -0.260299
      ESP Fit Center  339 is at   2.945699  3.238503 -0.260299
      ESP Fit Center  340 is at   1.968370  3.609155 -0.260299
      ESP Fit Center  341 is at   3.121970  2.470629 -1.158469
      ESP Fit Center  342 is at   2.246319  3.106827 -1.158469
      ESP Fit Center  343 is at   1.163955  3.106827 -1.158469
      ESP Fit Center  344 is at   2.191087  2.282929 -1.780022
      ESP Fit Center  345 is at   1.219187  2.282929 -1.780022
      ESP Fit Center  346 is at   0.384507 -2.687715 -0.520876
      ESP Fit Center  347 is at   3.519483 -2.241621 -0.866742
      ESP Fit Center  348 is at   4.212614 -1.459237 -0.866742
      ESP Fit Center  349 is at   4.462760 -0.444357 -1.863636
      ESP Fit Center  350 is at   4.212614  0.570523 -1.863636
      ESP Fit Center  351 is at   3.519483  1.352907 -1.863636
      ESP Fit Center  352 is at   1.504521 -2.486281 -1.863636
      ESP Fit Center  353 is at   2.542154 -2.612273 -1.863636
      ESP Fit Center  354 is at   3.519483 -2.241621 -1.863636
      ESP Fit Center  355 is at   4.212614 -1.459237 -1.863636
      ESP Fit Center  356 is at   4.030224 -0.444357 -2.761806
      ESP Fit Center  357 is at   3.695755  0.585033 -2.761806
      ESP Fit Center  358 is at   2.820103  1.221231 -2.761806
      ESP Fit Center  359 is at   1.737739  1.221231 -2.761806
      ESP Fit Center  360 is at   0.862088  0.585033 -2.761806
      ESP Fit Center  361 is at   0.527618 -0.444357 -2.761806
      ESP Fit Center  362 is at   0.862088 -1.473747 -2.761806
      ESP Fit Center  363 is at   1.737739 -2.109945 -2.761806
      ESP Fit Center  364 is at   2.820103 -2.109945 -2.761806
      ESP Fit Center  365 is at   3.695755 -1.473747 -2.761806
      ESP Fit Center  366 is at   3.250821 -0.444357 -3.383359
      ESP Fit Center  367 is at   2.764871  0.397333 -3.383359
      ESP Fit Center  368 is at   1.792971  0.397333 -3.383359
      ESP Fit Center  369 is at   1.307021 -0.444357 -3.383359
      ESP Fit Center  370 is at   1.792971 -1.286047 -3.383359
      ESP Fit Center  371 is at   2.764871 -1.286047 -3.383359
      ESP Fit Center  372 is at   2.278921 -0.444357 -3.605189
      ESP Fit Center  373 is at  -0.670771 -2.200490  2.243647
      ESP Fit Center  374 is at   0.117553 -1.517403  2.243647
      ESP Fit Center  375 is at  -2.686876 -2.676553  1.477439
      ESP Fit Center  376 is at  -1.700509 -2.997043  1.477439
      ESP Fit Center  377 is at  -0.669063 -2.888634  1.477439
      ESP Fit Center  378 is at   0.229115 -2.370070  1.477439
      ESP Fit Center  379 is at  -3.851224  0.976538  0.537546
      ESP Fit Center  380 is at  -4.227753  0.004606  0.537546
      ESP Fit Center  381 is at  -4.227753 -1.037712  0.537546
      ESP Fit Center  382 is at  -3.851224 -2.009645  0.537546
      ESP Fit Center  383 is at  -1.178103 -3.340701  0.537546
      ESP Fit Center  384 is at  -0.175575 -3.055457  0.537546
      ESP Fit Center  385 is at  -4.227753  0.004606 -0.462668
      ESP Fit Center  386 is at  -4.227753 -1.037712 -0.462668
      ESP Fit Center  387 is at  -0.175575 -3.055457 -0.462668
      ESP Fit Center  388 is at  -3.879449  0.002010 -1.402561
      ESP Fit Center  389 is at   0.229115 -2.370070 -1.402561
      ESP Fit Center  390 is at  -3.216040  0.004998 -2.168769
      ESP Fit Center  391 is at   0.117553 -1.517403 -2.168769
      ESP Fit Center  392 is at  -0.454781 -0.516553 -2.668876
      ESP Fit Center  393 is at  -0.947290  0.336497 -2.668876
      ESP Fit Center  394 is at  -1.439799 -0.516553 -2.842561
      ESP Fit Center  395 is at   2.259985  0.789781  2.706472
      ESP Fit Center  396 is at   1.274967  0.789781  2.706472
      ESP Fit Center  397 is at   0.782458 -0.063270  2.706472
      ESP Fit Center  398 is at   3.324828  0.937580  2.206365
      ESP Fit Center  399 is at   0.555179  1.335795  2.206365
      ESP Fit Center  400 is at   4.045998  0.951193  1.440157
      ESP Fit Center  401 is at   0.520399 -2.223270  1.440157
      ESP Fit Center  402 is at   4.603722 -0.063270  0.500264
      ESP Fit Center  403 is at   4.412197  0.961300  0.500264
      ESP Fit Center  404 is at   0.991300 -2.791244  0.500264
      ESP Fit Center  405 is at   4.603722 -0.063270 -0.499950
      ESP Fit Center  406 is at   4.412197  0.961300 -0.499950
      ESP Fit Center  407 is at   3.863487  1.847497 -0.499950
      ESP Fit Center  408 is at   0.991300 -2.791244 -0.499950
      ESP Fit Center  409 is at   2.029172 -2.887417 -0.499950
      ESP Fit Center  410 is at   3.031700 -2.602174 -0.499950
      ESP Fit Center  411 is at   3.863487 -1.974037 -0.499950
      ESP Fit Center  412 is at   4.412197 -1.087840 -0.499950
      ESP Fit Center  413 is at   4.045998  0.951193 -1.439843
      ESP Fit Center  414 is at   3.436390  1.790247 -1.439843
      ESP Fit Center  415 is at   0.520399 -2.223270 -1.439843
      ESP Fit Center  416 is at   2.536504  1.620666 -2.206051
      ESP Fit Center  417 is at   1.504019  1.769115 -2.206051
      ESP Fit Center  418 is at   0.555179  1.335795 -2.206051
      ESP Fit Center  419 is at   0.422107  3.140179  1.868239
      ESP Fit Center  420 is at  -0.390899  3.844653  1.868239
      ESP Fit Center  421 is at   0.371275  4.058253  0.992296
      ESP Fit Center  422 is at  -0.628931  4.539927  0.992296
      ESP Fit Center  423 is at  -1.739077  4.539927  0.992296
      ESP Fit Center  424 is at   0.725184  4.017182 -0.040949
      ESP Fit Center  425 is at  -3.678479  3.141239 -0.040949
      ESP Fit Center  426 is at   0.422107  3.140179 -1.950137
      ESP Fit Center  427 is at  -0.150759  2.107994 -2.535424
      ESP Fit Center  428 is at  -1.663288  4.820627  0.397294
      ESP Fit Center  429 is at  -2.622064  4.382769  0.397294
      ESP Fit Center  430 is at  -0.170052  4.746698 -0.682706
      ESP Fit Center  431 is at  -1.136713  5.113304 -0.682706
      ESP Fit Center  432 is at  -2.163019  4.988688 -0.682706
      ESP Fit Center  433 is at  -3.013855  4.401398 -0.682706
      ESP Fit Center  434 is at  -3.494307  3.485975 -0.682706
      ESP Fit Center  435 is at   0.176589  3.980384 -1.762706
      ESP Fit Center  436 is at  -0.619991  4.670624 -1.762706
      ESP Fit Center  437 is at  -1.663288  4.820627 -1.762706
      ESP Fit Center  438 is at  -2.622064  4.382769 -1.762706
      ESP Fit Center  439 is at  -3.191914  3.496066 -1.762706
      ESP Fit Center  440 is at  -0.317072  2.969053 -2.553321
      ESP Fit Center  441 is at  -0.857072  3.904360 -2.553321
      ESP Fit Center  442 is at  -1.937072  3.904360 -2.553321
      ESP Fit Center  443 is at  -2.477072  2.969053 -2.553321
      ESP Fit Center  444 is at  -1.397072  2.969053 -2.842706
      ESP Fit Center  445 is at  -1.617627  2.300516  3.101683
      ESP Fit Center  446 is at  -0.537627  2.300516  2.812298
      ESP Fit Center  447 is at  -1.077627  3.235823  2.812298
      ESP Fit Center  448 is at  -2.157627  3.235823  2.812298
      ESP Fit Center  449 is at  -2.697627  2.300516  2.812298
      ESP Fit Center  450 is at  -0.840546  4.002087  2.021683
      ESP Fit Center  451 is at  -1.883843  4.152090  2.021683
      ESP Fit Center  452 is at  -2.842619  3.714232  2.021683
      ESP Fit Center  453 is at  -3.412469  2.827529  2.021683
      ESP Fit Center  454 is at  -3.412469  1.773503  2.021683
      ESP Fit Center  455 is at  -2.383574  4.320151  0.941683
      ESP Fit Center  456 is at  -3.234410  3.732861  0.941683
      ESP Fit Center  457 is at  -3.714862  2.817438  0.941683
      ESP Fit Center  458 is at  -3.714862  1.783594  0.941683
      ESP Fit Center  459 is at  -4.015907  2.016149 -0.080303
      ESP Fit Center  460 is at  -4.015907  2.016149 -1.201809
      ESP Fit Center  461 is at  -4.259208  0.950176 -1.201809
      ESP Fit Center  462 is at  -3.092607  2.439165 -2.212250
      ESP Fit Center  463 is at  -3.692798  1.505250 -2.212250
      ESP Fit Center  464 is at  -3.692798  0.395102 -2.212250
      ESP Fit Center  465 is at  -0.709003  0.950176 -2.911498
      ESP Fit Center  466 is at  -1.255697  1.897077 -2.911498
      ESP Fit Center  467 is at  -2.349084  1.897077 -2.911498
      ESP Fit Center  468 is at  -2.895777  0.950176 -2.911498
      ESP Fit Center  469 is at  -1.802390  0.950176 -3.161056
      ESP Fit Center  470 is at  -1.949941 -0.455615  3.961349
      ESP Fit Center  471 is at  -0.856554 -0.455615  3.711791
      ESP Fit Center  472 is at  -1.403247  0.491286  3.711791
      ESP Fit Center  473 is at  -2.496634  0.491286  3.711791
      ESP Fit Center  474 is at  -3.043328 -0.455615  3.711791
      ESP Fit Center  475 is at  -2.496634 -1.402516  3.711791
      ESP Fit Center  476 is at  -1.403247 -1.402516  3.711791
      ESP Fit Center  477 is at   0.020274 -0.455615  3.012543
      ESP Fit Center  478 is at  -0.292490  0.609564  3.012543
      ESP Fit Center  479 is at  -1.131484  1.336556  3.012543
      ESP Fit Center  480 is at  -2.230332  1.494546  3.012543
      ESP Fit Center  481 is at  -3.240158  1.033374  3.012543
      ESP Fit Center  482 is at  -3.840349  0.099459  3.012543
      ESP Fit Center  483 is at  -3.840349 -1.010689  3.012543
      ESP Fit Center  484 is at  -3.240158 -1.944605  3.012543
      ESP Fit Center  485 is at  -2.230332 -2.405777  3.012543
      ESP Fit Center  486 is at  -1.131484 -2.247786  3.012543
      ESP Fit Center  487 is at  -0.292490 -1.520794  3.012543
      ESP Fit Center  488 is at  -3.481742  1.465203  2.002102
      ESP Fit Center  489 is at  -4.163458  0.610358  2.002102
      ESP Fit Center  490 is at  -4.406759 -0.455615  2.002102
      ESP Fit Center  491 is at  -4.163458 -1.521589  2.002102
      ESP Fit Center  492 is at  -3.481742 -2.376433  2.002102
      ESP Fit Center  493 is at   2.357169 -0.842237  3.667046
      ESP Fit Center  494 is at   3.450556 -0.842237  3.417488
      ESP Fit Center  495 is at   2.903863  0.104664  3.417488
      ESP Fit Center  496 is at   1.810476  0.104664  3.417488
      ESP Fit Center  497 is at   1.263782 -0.842237  3.417488
      ESP Fit Center  498 is at   1.810476 -1.789138  3.417488
      ESP Fit Center  499 is at   2.903863 -1.789138  3.417488
      ESP Fit Center  500 is at   4.327384 -0.842237  2.718240
      ESP Fit Center  501 is at   4.014620  0.222942  2.718240
      ESP Fit Center  502 is at   0.466761 -1.397311  2.718240
      ESP Fit Center  503 is at   1.066952 -2.331226  2.718240
      ESP Fit Center  504 is at   2.076778 -2.792398  2.718240
      ESP Fit Center  505 is at   3.175626 -2.634408  2.718240
      ESP Fit Center  506 is at   4.014620 -1.907416  2.718240
      ESP Fit Center  507 is at   4.813987 -0.842237  1.707799
      ESP Fit Center  508 is at   4.570686  0.223737  1.707799
      ESP Fit Center  509 is at   0.825368 -2.763055  1.707799
      ESP Fit Center  510 is at   1.810476 -3.237458  1.707799
      ESP Fit Center  511 is at   2.903863 -3.237458  1.707799
      ESP Fit Center  512 is at   3.888970 -2.763055  1.707799
      ESP Fit Center  513 is at   4.570686 -1.908210  1.707799
      ESP Fit Center  514 is at   2.903863 -3.237458  0.586293
      ESP Fit Center  515 is at   3.888970 -2.763055  0.586293
      ESP Fit Center  516 is at   4.570686 -1.908210  0.586293
      ESP Fit Center  517 is at  -4.503138 -1.526971 -0.316577
      ESP Fit Center  518 is at  -4.259837 -2.592945 -0.316577
      ESP Fit Center  519 is at  -3.578121 -3.447789 -0.316577
      ESP Fit Center  520 is at  -2.593013 -3.922192 -0.316577
      ESP Fit Center  521 is at  -1.499626 -3.922192 -0.316577
      ESP Fit Center  522 is at  -4.503138 -1.526971 -1.438083
      ESP Fit Center  523 is at  -4.259837 -2.592945 -1.438083
      ESP Fit Center  524 is at  -3.578121 -3.447789 -1.438083
      ESP Fit Center  525 is at  -2.593013 -3.922192 -1.438083
      ESP Fit Center  526 is at  -1.499626 -3.922192 -1.438083
      ESP Fit Center  527 is at  -0.514519 -3.447789 -1.438083
      ESP Fit Center  528 is at  -3.936728 -0.971897 -2.448524
      ESP Fit Center  529 is at  -3.936728 -2.082045 -2.448524
      ESP Fit Center  530 is at  -3.336537 -3.015961 -2.448524
      ESP Fit Center  531 is at  -2.326711 -3.477133 -2.448524
      ESP Fit Center  532 is at  -1.227863 -3.319142 -2.448524
      ESP Fit Center  533 is at  -0.388869 -2.592150 -2.448524
      ESP Fit Center  534 is at  -0.952933 -1.526971 -3.147772
      ESP Fit Center  535 is at  -2.593013 -0.580070 -3.147772
      ESP Fit Center  536 is at  -3.139707 -1.526971 -3.147772
      ESP Fit Center  537 is at  -2.593013 -2.473872 -3.147772
      ESP Fit Center  538 is at  -1.499626 -2.473872 -3.147772
      ESP Fit Center  539 is at  -2.046320 -1.526971 -3.397330
      ESP Fit Center  540 is at   2.251830  2.388140  2.508590
      ESP Fit Center  541 is at   1.158443  2.388140  2.508590
      ESP Fit Center  542 is at   3.362587  2.506418  1.809342
      ESP Fit Center  543 is at   2.523594  3.233410  1.809342
      ESP Fit Center  544 is at   1.424746  3.391400  1.809342
      ESP Fit Center  545 is at   3.918654  2.507213  0.798901
      ESP Fit Center  546 is at   3.236938  3.362057  0.798901
      ESP Fit Center  547 is at   2.251830  3.836460  0.798901
      ESP Fit Center  548 is at   1.158443  3.836460  0.798901
      ESP Fit Center  549 is at   3.918654  2.507213 -0.322605
      ESP Fit Center  550 is at   3.236938  3.362057 -0.322605
      ESP Fit Center  551 is at   2.251830  3.836460 -0.322605
      ESP Fit Center  552 is at   1.158443  3.836460 -0.322605
      ESP Fit Center  553 is at   3.362587  2.506418 -1.333046
      ESP Fit Center  554 is at   2.523594  3.233410 -1.333046
      ESP Fit Center  555 is at   1.424746  3.391400 -1.333046
      ESP Fit Center  556 is at   1.158443  2.388140 -2.032294
      ESP Fit Center  557 is at   4.735739 -0.444357 -1.925942
      ESP Fit Center  558 is at   4.492438  0.621617 -1.925942
      ESP Fit Center  559 is at   1.732227 -2.839578 -1.925942
      ESP Fit Center  560 is at   2.825615 -2.839578 -1.925942
      ESP Fit Center  561 is at   3.810722 -2.365175 -1.925942
      ESP Fit Center  562 is at   4.492438 -1.510331 -1.925942
      ESP Fit Center  563 is at   4.249136 -0.444357 -2.936383
      ESP Fit Center  564 is at   3.936372  0.620822 -2.936383
      ESP Fit Center  565 is at   3.097378  1.347814 -2.936383
      ESP Fit Center  566 is at   1.998530  1.505804 -2.936383
      ESP Fit Center  567 is at   0.388513  0.110717 -2.936383
      ESP Fit Center  568 is at   0.388513 -0.999431 -2.936383
      ESP Fit Center  569 is at   0.988704 -1.933346 -2.936383
      ESP Fit Center  570 is at   1.998530 -2.394518 -2.936383
      ESP Fit Center  571 is at   3.097378 -2.236528 -2.936383
      ESP Fit Center  572 is at   3.936372 -1.509536 -2.936383
      ESP Fit Center  573 is at   3.372308 -0.444357 -3.635631
      ESP Fit Center  574 is at   2.825615  0.502544 -3.635631
      ESP Fit Center  575 is at   1.732227  0.502544 -3.635631
      ESP Fit Center  576 is at   1.185534 -0.444357 -3.635631
      ESP Fit Center  577 is at   1.732227 -1.391258 -3.635631
      ESP Fit Center  578 is at   2.825615 -1.391258 -3.635631
      ESP Fit Center  579 is at   2.278921 -0.444357 -3.885189
      ESP Fit Center  580 is at  -0.648673 -2.248878  2.658654
      ESP Fit Center  581 is at   0.162305 -1.546163  2.658654
      ESP Fit Center  582 is at  -2.442895 -2.938240  1.941863
      ESP Fit Center  583 is at  -1.439799 -3.137768  1.941863
      ESP Fit Center  584 is at  -0.436703 -2.938240  1.941863
      ESP Fit Center  585 is at   0.413680 -2.370032  1.941863
      ESP Fit Center  586 is at  -4.149830  0.950042  1.038654
      ESP Fit Center  587 is at  -4.479196 -0.009368  1.038654
      ESP Fit Center  588 is at  -4.479196 -1.023739  1.038654
      ESP Fit Center  589 is at  -4.149830 -1.983149  1.038654
      ESP Fit Center  590 is at  -3.526790 -2.783630  1.038654
      ESP Fit Center  591 is at  -2.677593 -3.338438  1.038654
      ESP Fit Center  592 is at  -1.694261 -3.587452  1.038654
      ESP Fit Center  593 is at  -0.683354 -3.503686  1.038654
      ESP Fit Center  594 is at   0.245580 -3.096217  1.038654
      ESP Fit Center  595 is at  -4.521222  0.484662  0.037439
      ESP Fit Center  596 is at  -4.679799 -0.516553  0.037439
      ESP Fit Center  597 is at  -4.521222 -1.517768  0.037439
      ESP Fit Center  598 is at  -0.438584 -3.597976  0.037439
      ESP Fit Center  599 is at   0.464625 -3.137768  0.037439
      ESP Fit Center  600 is at  -4.479196 -0.009368 -0.963776
      ESP Fit Center  601 is at   0.245580 -3.096217 -0.963776
      ESP Fit Center  602 is at   0.413680 -2.370032 -1.866985
      ESP Fit Center  603 is at  -3.267081  0.019985 -2.583776
      ESP Fit Center  604 is at   0.162305 -1.546163 -2.583776
      ESP Fit Center  605 is at  -0.438584 -0.516553 -3.043984
      ESP Fit Center  606 is at  -0.939191  0.350524 -3.043984
      ESP Fit Center  607 is at  -1.439799 -0.516553 -3.202561
      ESP Fit Center  608 is at   2.268084  0.803808  3.081580
      ESP Fit Center  609 is at   1.266868  0.803808  3.081580
      ESP Fit Center  610 is at   0.766261 -0.063270  3.081580
      ESP Fit Center  611 is at   3.369580  0.966339  2.621372
      ESP Fit Center  612 is at   2.558602  1.669055  2.621372
      ESP Fit Center  613 is at   0.520343  1.375998  2.621372
      ESP Fit Center  614 is at   4.189163  0.939826  1.904581
      ESP Fit Center  615 is at   3.620955  1.790209  1.904581
      ESP Fit Center  616 is at   4.848899 -0.063270  1.001372
      ESP Fit Center  617 is at   4.681939  0.937266  1.001372
      ESP Fit Center  618 is at   4.199152  1.829379  1.001372
      ESP Fit Center  619 is at   5.007476 -0.063270  0.000157
      ESP Fit Center  620 is at   4.848899  0.937945  0.000157
      ESP Fit Center  621 is at   4.388691  1.841154  0.000157
      ESP Fit Center  622 is at   0.766261 -3.144693  0.000157
      ESP Fit Center  623 is at   1.767476 -3.303270  0.000157
      ESP Fit Center  624 is at   2.768691 -3.144693  0.000157
      ESP Fit Center  625 is at   3.671900 -2.684485  0.000157
      ESP Fit Center  626 is at   4.388691 -1.967694  0.000157
      ESP Fit Center  627 is at   4.848899 -1.064485  0.000157
      ESP Fit Center  628 is at   4.848899 -0.063270 -1.001058
      ESP Fit Center  629 is at   4.681939  0.937266 -1.001058
      ESP Fit Center  630 is at   4.199152  1.829379 -1.001058
      ESP Fit Center  631 is at   0.529682 -2.885155 -1.001058
      ESP Fit Center  632 is at   1.513014 -3.134169 -1.001058
      ESP Fit Center  633 is at   2.523921 -3.050402 -1.001058
      ESP Fit Center  634 is at   3.620955  1.790209 -1.904267
      ESP Fit Center  635 is at   2.770572  2.358417 -1.904267
      ESP Fit Center  636 is at   0.764380 -2.484957 -1.904267
      ESP Fit Center  637 is at   1.496448  1.821770 -2.621058
      ESP Fit Center  638 is at   0.520343  1.375998 -2.621058
      ESP Fit Center  639 is at   0.438238  3.150545  2.257184
      ESP Fit Center  640 is at   0.554448  4.038741  1.459051
      ESP Fit Center  641 is at  -0.381154  4.578911  1.459051
      ESP Fit Center  642 is at  -1.455577  4.691837  1.459051
      ESP Fit Center  643 is at   0.132896  4.752685  0.479996
      ESP Fit Center  644 is at  -0.911404  5.049814  0.479996
      ESP Fit Center  645 is at  -2.964442  4.465674  0.479996
      ESP Fit Center  646 is at  -3.695905  3.663297  0.479996
      ESP Fit Center  647 is at  -4.088123  2.650868  0.479996
      ESP Fit Center  648 is at   0.999341  4.098376 -0.561894
      ESP Fit Center  649 is at  -3.695905  3.663297 -0.561894
      ESP Fit Center  650 is at  -4.088123  2.650868 -0.561894
      ESP Fit Center  651 is at   0.438238  3.150545 -2.339082
      ESP Fit Center  652 is at  -0.157944  2.107994 -2.860027
      ESP Fit Center  653 is at  -0.876412  5.250215 -0.148656
      ESP Fit Center  654 is at  -1.917733  5.250215 -0.148656
      ESP Fit Center  655 is at  -2.855931  4.798403 -0.148656
      ESP Fit Center  656 is at   0.061786  4.798403 -1.216756
      ESP Fit Center  657 is at  -0.876412  5.250215 -1.216756
      ESP Fit Center  658 is at  -1.917733  5.250215 -1.216756
      ESP Fit Center  659 is at  -2.855931  4.798403 -1.216756
      ESP Fit Center  660 is at  -3.505184  3.984266 -1.216756
      ESP Fit Center  661 is at   0.181452  3.983509 -2.179082
      ESP Fit Center  662 is at  -0.617589  4.675882 -2.179082
      ESP Fit Center  663 is at  -1.664111  4.826349 -2.179082
      ESP Fit Center  664 is at  -2.625850  4.387138 -2.179082
      ESP Fit Center  665 is at  -3.197461  3.497694 -2.179082
      ESP Fit Center  666 is at  -0.355751  2.969053 -2.845031
      ESP Fit Center  667 is at  -0.876412  3.870863 -2.845031
      ESP Fit Center  668 is at  -1.917733  3.870863 -2.845031
      ESP Fit Center  669 is at  -2.438393  2.969053 -2.845031
      ESP Fit Center  670 is at  -1.397072  2.969053 -3.082706
      ESP Fit Center  671 is at  -1.617627  2.300516  3.341683
      ESP Fit Center  672 is at  -0.576306  2.300516  3.104008
      ESP Fit Center  673 is at  -1.096967  3.202326  3.104008
      ESP Fit Center  674 is at  -2.138288  3.202326  3.104008
      ESP Fit Center  675 is at  -2.658948  2.300516  3.104008
      ESP Fit Center  676 is at  -0.838144  4.007345  2.438059
      ESP Fit Center  677 is at  -1.884666  4.157812  2.438059
      ESP Fit Center  678 is at  -2.846405  3.718601  2.438059
      ESP Fit Center  679 is at  -3.418016  2.829157  2.438059
      ESP Fit Center  680 is at  -3.418016  1.771874  2.438059
      ESP Fit Center  681 is at  -2.138288  4.581678  1.475733
      ESP Fit Center  682 is at  -3.076485  4.129866  1.475733
      ESP Fit Center  683 is at  -3.725738  3.315729  1.475733
      ESP Fit Center  684 is at  -3.957454  2.300516  1.475733
      ESP Fit Center  685 is at  -4.182998  2.424186 -0.641056
      ESP Fit Center  686 is at  -4.554715  1.464674 -0.641056
      ESP Fit Center  687 is at  -3.895206  2.470695 -1.712570
      ESP Fit Center  688 is at  -4.332724  1.488015 -1.712570
      ESP Fit Center  689 is at  -2.792340  2.664819 -2.620955
      ESP Fit Center  690 is at  -3.517033  1.940125 -2.620955
      ESP Fit Center  691 is at  -3.782289  0.950176 -2.620955
      ESP Fit Center  692 is at  -0.730876  0.950176 -3.227919
      ESP Fit Center  693 is at  -1.266633  1.878134 -3.227919
      ESP Fit Center  694 is at  -2.338147  1.878134 -3.227919
      ESP Fit Center  695 is at  -2.873904  0.950176 -3.227919
      ESP Fit Center  696 is at  -1.802390  0.950176 -3.441056
      ESP Fit Center  697 is at  -1.949941 -0.455615  4.241349
      ESP Fit Center  698 is at  -0.878427 -0.455615  4.028212
      ESP Fit Center  699 is at  -1.414184  0.472343  4.028212
      ESP Fit Center  700 is at  -2.485698  0.472343  4.028212
      ESP Fit Center  701 is at  -3.021455 -0.455615  4.028212
      ESP Fit Center  702 is at  -2.485698 -1.383573  4.028212
      ESP Fit Center  703 is at  -1.414184 -1.383573  4.028212
      ESP Fit Center  704 is at   0.029958 -0.455615  3.421248
      ESP Fit Center  705 is at  -0.235298  0.534334  3.421248
      ESP Fit Center  706 is at  -0.959991  1.259028  3.421248
      ESP Fit Center  707 is at  -1.949941  1.524284  3.421248
      ESP Fit Center  708 is at  -2.939890  1.259028  3.421248
      ESP Fit Center  709 is at  -3.664584  0.534334  3.421248
      ESP Fit Center  710 is at  -3.929840 -0.455615  3.421248
      ESP Fit Center  711 is at  -3.664584 -1.445565  3.421248
      ESP Fit Center  712 is at  -2.939890 -2.170258  3.421248
      ESP Fit Center  713 is at  -1.949941 -2.435514  3.421248
      ESP Fit Center  714 is at  -0.959991 -2.170258  3.421248
      ESP Fit Center  715 is at  -0.235298 -1.445565  3.421248
      ESP Fit Center  716 is at  -4.042757  1.064904  2.512863
      ESP Fit Center  717 is at  -4.480275  0.082224  2.512863
      ESP Fit Center  718 is at  -4.480275 -0.993454  2.512863
      ESP Fit Center  719 is at  -4.042757 -1.976135  2.512863
      ESP Fit Center  720 is at  -3.243372 -2.695904  2.512863
      ESP Fit Center  721 is at  -2.220342 -3.028307  2.512863
      ESP Fit Center  722 is at   2.357169 -0.842237  3.947046
      ESP Fit Center  723 is at   3.428683 -0.842237  3.733909
      ESP Fit Center  724 is at   2.892926  0.085721  3.733909
      ESP Fit Center  725 is at   1.821412  0.085721  3.733909
      ESP Fit Center  726 is at   1.285655 -0.842237  3.733909
      ESP Fit Center  727 is at   1.821412 -1.770195  3.733909
      ESP Fit Center  728 is at   2.892926 -1.770195  3.733909
      ESP Fit Center  729 is at   4.337068 -0.842237  3.126945
      ESP Fit Center  730 is at   4.071812  0.147713  3.126945
      ESP Fit Center  731 is at   3.347119  0.872406  3.126945
      ESP Fit Center  732 is at   0.642526 -1.832186  3.126945
      ESP Fit Center  733 is at   1.367220 -2.556880  3.126945
      ESP Fit Center  734 is at   2.357169 -2.822136  3.126945
      ESP Fit Center  735 is at   3.347119 -2.556880  3.126945
      ESP Fit Center  736 is at   4.071812 -1.832186  3.126945
[...]
  156 Fit      -0.424911
  157 Fit      -0.440468
  158 Fit      -0.459157
  159 Fit      -0.475726
  160 Fit      -0.496341
  161 Fit      -0.490724
  162 Fit      -0.463427
  163 Fit      -0.442063
  164 Fit      -0.426909
  165 Fit      -0.416775
  166 Fit      -0.424615
  167 Fit      -0.442200
  168 Fit      -0.454982
  169 Fit      -0.445499
  170 Fit      -0.425958
  171 Fit      -0.428309
  172 Fit      -0.438833
  173 Fit      -0.445831
  174 Fit      -0.498575
  175 Fit      -0.410063
  176 Fit      -0.408723
  177 Fit      -0.432622
  178 Fit      -0.427103
  179 Fit      -0.460016
  180 Fit      -0.423500
  181 Fit      -0.448680
  182 Fit      -0.442689
  183 Fit      -0.494566
  184 Fit      -0.447773
  185 Fit      -0.430400
  186 Fit      -0.421450
  187 Fit      -0.449205
  188 Fit      -0.439630
  189 Fit      -0.455967
  190 Fit      -0.472234
  191 Fit      -0.470862
  192 Fit      -0.475623
  193 Fit      -0.465607
  194 Fit      -0.468435
  195 Fit      -0.459930
  196 Fit      -0.476474
  197 Fit      -0.407847
  198 Fit      -0.324695
  199 Fit      -0.340872
  200 Fit      -0.303374
  201 Fit      -0.289650
  202 Fit      -0.338862
  203 Fit      -0.307335
  204 Fit      -0.367802
  205 Fit      -0.388251
  206 Fit      -0.296000
  207 Fit      -0.281994
  208 Fit      -0.339268
  209 Fit      -0.295352
  210 Fit      -0.273454
  211 Fit      -0.269311
  212 Fit      -0.281722
  213 Fit      -0.318009
  214 Fit      -0.282956
  215 Fit      -0.269976
  216 Fit      -0.277714
  217 Fit      -0.308927
  218 Fit      -0.339625
  219 Fit      -0.298970
  220 Fit      -0.285993
  221 Fit      -0.310105
  222 Fit      -0.319399
  223 Fit      -0.387194
  224 Fit      -0.355397
  225 Fit      -0.367972
  226 Fit      -0.335686
  227 Fit      -0.365706
  228 Fit      -0.316732
  229 Fit      -0.297165
  230 Fit      -0.317229
  231 Fit      -0.377904
  232 Fit      -0.301316
  233 Fit      -0.283016
  234 Fit      -0.285521
  235 Fit      -0.310557
  236 Fit      -0.368280
  237 Fit      -0.284281
  238 Fit      -0.291492
  239 Fit      -0.317501
  240 Fit      -0.369748
  241 Fit      -0.355715
  242 Fit      -0.350591
  243 Fit      -0.379134
  244 Fit      -0.343856
  245 Fit      -0.363573
  246 Fit      -0.409974
  247 Fit      -0.374710
  248 Fit      -0.357110
  249 Fit      -0.370014
  250 Fit      -0.405944
  251 Fit      -0.383826
  252 Fit      -0.383190
  253 Fit      -0.409676
  254 Fit      -0.398219
  255 Fit      -0.379026
  256 Fit      -0.371827
  257 Fit      -0.378285
  258 Fit      -0.395588
  259 Fit      -0.455530
  260 Fit      -0.443027
  261 Fit      -0.412276
  262 Fit      -0.388095
  263 Fit      -0.375569
  264 Fit      -0.372440
  265 Fit      -0.377048
  266 Fit      -0.387372
  267 Fit      -0.405604
  268 Fit      -0.435453
  269 Fit      -0.387023
  270 Fit      -0.382504
  271 Fit      -0.385510
  272 Fit      -0.393968
  273 Fit      -0.403231
  274 Fit      -0.413443
  275 Fit      -0.398389
  276 Fit      -0.420362
  277 Fit      -0.442904
  278 Fit      -0.441331
  279 Fit      -0.415004
  280 Fit      -0.395703
  281 Fit      -0.393720
  282 Fit      -0.413591
  283 Fit      -0.447869
  284 Fit      -0.412331
  285 Fit      -0.392018
  286 Fit      -0.386542
  287 Fit      -0.398925
  288 Fit      -0.458949
  289 Fit      -0.423559
  290 Fit      -0.401381
  291 Fit      -0.391291
  292 Fit      -0.391148
  293 Fit      -0.416912
  294 Fit      -0.437672
  295 Fit      -0.415032
  296 Fit      -0.405866
  297 Fit      -0.407324
  298 Fit      -0.436315
  299 Fit      -0.393988
  300 Fit      -0.396321
  301 Fit      -0.391265
  302 Fit      -0.377472
  303 Fit      -0.372408
  304 Fit      -0.376484
  305 Fit      -0.390712
  306 Fit      -0.416865
  307 Fit      -0.381889
  308 Fit      -0.367729
  309 Fit      -0.362930
  310 Fit      -0.367516
  311 Fit      -0.382482
  312 Fit      -0.409631
  313 Fit      -0.395100
  314 Fit      -0.372005
  315 Fit      -0.363407
  316 Fit      -0.368357
  317 Fit      -0.387821
  318 Fit      -0.422291
  319 Fit      -0.419886
  320 Fit      -0.400242
  321 Fit      -0.378250
  322 Fit      -0.374756
  323 Fit      -0.393447
  324 Fit      -0.393264
  325 Fit      -0.431231
  326 Fit      -0.425961
  327 Fit      -0.404498
  328 Fit      -0.411806
  329 Fit      -0.444566
  330 Fit      -0.397811
  331 Fit      -0.388558
  332 Fit      -0.394095
  333 Fit      -0.400666
  334 Fit      -0.388196
  335 Fit      -0.384447
  336 Fit      -0.389979
  337 Fit      -0.411150
  338 Fit      -0.396386
  339 Fit      -0.391353
  340 Fit      -0.411374
  341 Fit      -0.411871
  342 Fit      -0.448162
  343 Fit      -0.451997
  344 Fit      -0.461874
  345 Fit      -0.453919
  346 Fit      -0.411015
  347 Fit      -0.423378
  348 Fit      -0.392113
  349 Fit      -0.394790
  350 Fit      -0.407706
  351 Fit      -0.429308
  352 Fit      -0.427800
  353 Fit      -0.410956
  354 Fit      -0.398300
  355 Fit      -0.382777
  356 Fit      -0.386928
  357 Fit      -0.400352
  358 Fit      -0.418330
  359 Fit      -0.437462
  360 Fit      -0.455180
  361 Fit      -0.449232
  362 Fit      -0.423906
  363 Fit      -0.402615
  364 Fit      -0.388588
  365 Fit      -0.383094
  366 Fit      -0.389641
  367 Fit      -0.405457
  368 Fit      -0.417255
  369 Fit      -0.408683
  370 Fit      -0.391178
  371 Fit      -0.394165
  372 Fit      -0.473899
  373 Fit      -0.397053
  374 Fit      -0.401738
  375 Fit      -0.402220
  376 Fit      -0.399699
  377 Fit      -0.409246
  378 Fit      -0.452632
  379 Fit      -0.376155
  380 Fit      -0.384591
  381 Fit      -0.403417
  382 Fit      -0.417904
  383 Fit      -0.382996
  384 Fit      -0.426531
  385 Fit      -0.399260
  386 Fit      -0.436263
  387 Fit      -0.419800
  388 Fit      -0.430777
  389 Fit      -0.414010
  390 Fit      -0.441468
  391 Fit      -0.454224
  392 Fit      -0.463341
  393 Fit      -0.421303
  394 Fit      -0.411378
  395 Fit      -0.399995
  396 Fit      -0.396942
  397 Fit      -0.389562
  398 Fit      -0.407307
  399 Fit      -0.406961
  400 Fit      -0.400628
  401 Fit      -0.408078
  402 Fit      -0.448409
  403 Fit      -0.437019
  404 Fit      -0.437231
  405 Fit      -0.431734
  406 Fit      -0.419544
  407 Fit      -0.432066
  408 Fit      -0.435529
  409 Fit      -0.437839
  410 Fit      -0.435721
  411 Fit      -0.437602
  412 Fit      -0.437681
  413 Fit      -0.392988
  414 Fit      -0.316082
  415 Fit      -0.331512
  416 Fit      -0.293009
  417 Fit      -0.278215
  418 Fit      -0.300673
  419 Fit      -0.292101
  420 Fit      -0.322257
  421 Fit      -0.353844
  422 Fit      -0.373582
  423 Fit      -0.273571
  424 Fit      -0.292203
  425 Fit      -0.267102
  426 Fit      -0.258552
  427 Fit      -0.264258
  428 Fit      -0.285450
  429 Fit      -0.315353
  430 Fit      -0.278426
  431 Fit      -0.261472
  432 Fit      -0.262109
  433 Fit      -0.280885
  434 Fit      -0.333213
  435 Fit      -0.289927
  436 Fit      -0.276065
  437 Fit      -0.300311
  438 Fit      -0.310580
  439 Fit      -0.374296
  440 Fit      -0.351628
  441 Fit      -0.364590
  442 Fit      -0.326529
  443 Fit      -0.359228
  444 Fit      -0.307490
  445 Fit      -0.286946
  446 Fit      -0.307144
  447 Fit      -0.297942
  448 Fit      -0.275466
  449 Fit      -0.271470
  450 Fit      -0.285211
  451 Fit      -0.321580
  452 Fit      -0.274128
  453 Fit      -0.275410
  454 Fit      -0.291563
  455 Fit      -0.327545
  456 Fit      -0.346556
  457 Fit      -0.321592
  458 Fit      -0.339895
  459 Fit      -0.320851
  460 Fit      -0.329854
  461 Fit      -0.357075
  462 Fit      -0.393281
  463 Fit      -0.355844
  464 Fit      -0.336049
  465 Fit      -0.347617
  466 Fit      -0.362903
  467 Fit      -0.357466
  468 Fit      -0.385317
  469 Fit      -0.373210
  470 Fit      -0.353094
  471 Fit      -0.345527
  472 Fit      -0.352006
  473 Fit      -0.370121
  474 Fit      -0.437326
  475 Fit      -0.425464
  476 Fit      -0.394812
  477 Fit      -0.368131
  478 Fit      -0.352684
  479 Fit      -0.346067
  480 Fit      -0.346807
  481 Fit      -0.353340
  482 Fit      -0.365057
  483 Fit      -0.385658
  484 Fit      -0.417319
  485 Fit      -0.357375
  486 Fit      -0.356465
  487 Fit      -0.362048
  488 Fit      -0.371048
  489 Fit      -0.385203
  490 Fit      -0.369554
  491 Fit      -0.391806
  492 Fit      -0.416186
  493 Fit      -0.415782
  494 Fit      -0.387590
  495 Fit      -0.367437
  496 Fit      -0.364679
  497 Fit      -0.382433
  498 Fit      -0.452420
  499 Fit      -0.407848
  500 Fit      -0.377627
  501 Fit      -0.361820
  502 Fit      -0.358083
  503 Fit      -0.369906
  504 Fit      -0.420660
  505 Fit      -0.388545
  506 Fit      -0.369978
  507 Fit      -0.361992
  508 Fit      -0.362396
  509 Fit      -0.402951
  510 Fit      -0.383609
  511 Fit      -0.376429
  512 Fit      -0.378645
  513 Fit      -0.366953
  514 Fit      -0.356632
  515 Fit      -0.347237
  516 Fit      -0.345957
  517 Fit      -0.353113
  518 Fit      -0.370224
  519 Fit      -0.366079
  520 Fit      -0.346554
  521 Fit      -0.337775
  522 Fit      -0.336974
  523 Fit      -0.344440
  524 Fit      -0.361547
  525 Fit      -0.391661
  526 Fit      -0.353713
  527 Fit      -0.339794
  528 Fit      -0.337308
  529 Fit      -0.346138
  530 Fit      -0.367648
  531 Fit      -0.404021
  532 Fit      -0.397214
  533 Fit      -0.374929
  534 Fit      -0.351747
  535 Fit      -0.348528
  536 Fit      -0.368031
  537 Fit      -0.367637
  538 Fit      -0.403998
  539 Fit      -0.397901
  540 Fit      -0.376106
  541 Fit      -0.384687
  542 Fit      -0.420784
  543 Fit      -0.370578
  544 Fit      -0.360887
  545 Fit      -0.363732
  546 Fit      -0.381100
  547 Fit      -0.373372
  548 Fit      -0.360767
  549 Fit      -0.356540
  550 Fit      -0.360923
  551 Fit      -0.369116
  552 Fit      -0.363417
  553 Fit      -0.366986
  554 Fit      -0.384861
  555 Fit      -0.383128
  556 Fit      -0.426545
  557 Fit      -0.430366
  558 Fit      -0.362961
  559 Fit      -0.365161
  560 Fit      -0.376249
  561 Fit      -0.395890
  562 Fit      -0.395844
  563 Fit      -0.379833
  564 Fit      -0.368405
  565 Fit      -0.354009
  566 Fit      -0.357233
  567 Fit      -0.368409
  568 Fit      -0.384933
  569 Fit      -0.403823
  570 Fit      -0.433520
  571 Fit      -0.415389
  572 Fit      -0.389710
  573 Fit      -0.370861
  574 Fit      -0.358890
  575 Fit      -0.354748
  576 Fit      -0.361133
  577 Fit      -0.377366
  578 Fit      -0.390066
  579 Fit      -0.380989
  580 Fit      -0.362886
  581 Fit      -0.366034
  582 Fit      -0.373038
  583 Fit      -0.373423
  584 Fit      -0.377010
  585 Fit      -0.394236
  586 Fit      -0.354724
  587 Fit      -0.351580
  588 Fit      -0.355173
  589 Fit      -0.363233
  590 Fit      -0.370172
  591 Fit      -0.371948
  592 Fit      -0.371761
  593 Fit      -0.379987
  594 Fit      -0.410910
  595 Fit      -0.350932
  596 Fit      -0.351602
  597 Fit      -0.388075
  598 Fit      -0.418022
  599 Fit      -0.358594
  600 Fit      -0.413121
  601 Fit      -0.376124
  602 Fit      -0.407925
  603 Fit      -0.393511
  604 Fit      -0.398979
  605 Fit      -0.386079
  606 Fit      -0.416786
  607 Fit      -0.405327
  608 Fit      -0.418325
  609 Fit      -0.431946
  610 Fit      -0.389497
  611 Fit      -0.373510
  612 Fit      -0.369292
  613 Fit      -0.362636
  614 Fit      -0.371956
  615 Fit      -0.367513
  616 Fit      -0.362731
  617 Fit      -0.368293
  618 Fit      -0.426269
  619 Fit      -0.379289
  620 Fit      -0.377897
  621 Fit      -0.378385
  622 Fit      -0.386762
  623 Fit      -0.406954
  624 Fit      -0.398959
  625 Fit      -0.397050
  626 Fit      -0.394280
  627 Fit      -0.396422
  628 Fit      -0.397902
  629 Fit      -0.400996
  630 Fit      -0.427920
  631 Fit      -0.407573
  632 Fit      -0.410588
  633 Fit      -0.376820
  634 Fit      -0.356835
  635 Fit      -0.306840
  636 Fit      -0.328574
  637 Fit      -0.289076
  638 Fit      -0.271123
  639 Fit      -0.295134
  640 Fit      -0.271425
  641 Fit      -0.261661
  642 Fit      -0.261759
  643 Fit      -0.270738
  644 Fit      -0.290460
  645 Fit      -0.337870
  646 Fit      -0.271642
  647 Fit      -0.292237
  648 Fit      -0.297401
  649 Fit      -0.339965
  650 Fit      -0.358286
  651 Fit      -0.265896
  652 Fit      -0.253824
  653 Fit      -0.254655
  654 Fit      -0.285989
  655 Fit      -0.260122
  656 Fit      -0.248797
  657 Fit      -0.249516
  658 Fit      -0.262374
  659 Fit      -0.304876
  660 Fit      -0.270867
  661 Fit      -0.254942
  662 Fit      -0.255295
  663 Fit      -0.272426
  664 Fit      -0.322046
  665 Fit      -0.283156
  666 Fit      -0.270344
  667 Fit      -0.291618
  668 Fit      -0.301803
  669 Fit      -0.342094
  670 Fit      -0.317086
  671 Fit      -0.345793
  672 Fit      -0.299868
  673 Fit      -0.281106
  674 Fit      -0.299177
  675 Fit      -0.289341
  676 Fit      -0.267975
  677 Fit      -0.264005
  678 Fit      -0.276751
  679 Fit      -0.310389
  680 Fit      -0.263065
  681 Fit      -0.259952
  682 Fit      -0.268628
  683 Fit      -0.291378
  684 Fit      -0.323257
  685 Fit      -0.313524
  686 Fit      -0.300457
  687 Fit      -0.310415
  688 Fit      -0.333101
  689 Fit      -0.307834
  690 Fit      -0.322129
  691 Fit      -0.339265
  692 Fit      -0.320401
  693 Fit      -0.329627
  694 Fit      -0.344545
  695 Fit      -0.335610
  696 Fit      -0.359594
  697 Fit      -0.349185
  698 Fit      -0.331255
  699 Fit      -0.324159
  700 Fit      -0.329982
  701 Fit      -0.346356
  702 Fit      -0.403338
  703 Fit      -0.395104
  704 Fit      -0.372094
  705 Fit      -0.348831
  706 Fit      -0.333073
  707 Fit      -0.324547
  708 Fit      -0.322099
  709 Fit      -0.324825
  710 Fit      -0.331951
  711 Fit      -0.344064
  712 Fit      -0.363556
  713 Fit      -0.388778
  714 Fit      -0.332213
  715 Fit      -0.328364
  716 Fit      -0.329667
  717 Fit      -0.335031
  718 Fit      -0.342929
  719 Fit      -0.353619
  720 Fit      -0.361257
  721 Fit      -0.346606
  722 Fit      -0.365997
  723 Fit      -0.388417
  724 Fit      -0.363547
  725 Fit      -0.345185
  726 Fit      -0.340604
  727 Fit      -0.354774
  728 Fit      -0.404416
  729 Fit      -0.370775
  730 Fit      -0.348820
  731 Fit      -0.337447
  732 Fit      -0.335023
  733 Fit      -0.342227
  734 Fit      -0.381171
  735 Fit      -0.355798
  736 Fit      -0.341330
  737 Fit      -0.335136
  738 Fit      -0.335650
  739 Fit      -0.352685
  740 Fit      -0.375265
  741 Fit      -0.356048
  742 Fit      -0.345898
  743 Fit      -0.342646
  744 Fit      -0.345071
  745 Fit      -0.365407
  746 Fit      -0.360811
  747 Fit      -0.335308
  748 Fit      -0.329468
  749 Fit      -0.330947
  750 Fit      -0.340287
  751 Fit      -0.334340
  752 Fit      -0.322850
  753 Fit      -0.317710
  754 Fit      -0.318055
  755 Fit      -0.324156
  756 Fit      -0.337060
  757 Fit      -0.359165
  758 Fit      -0.329449
  759 Fit      -0.317693
  760 Fit      -0.313321
  761 Fit      -0.315525
  762 Fit      -0.324833
  763 Fit      -0.342809
  764 Fit      -0.372846
  765 Fit      -0.340030
  766 Fit      -0.323574
  767 Fit      -0.316742
  768 Fit      -0.318453
  769 Fit      -0.329103
  770 Fit      -0.349928
  771 Fit      -0.351596
  772 Fit      -0.330889
  773 Fit      -0.328320
  774 Fit      -0.346202
  775 Fit      -0.345946
  776 Fit      -0.380460
  777 Fit      -0.354789
  778 Fit      -0.363457
  779 Fit      -0.396633
  780 Fit      -0.349575
  781 Fit      -0.340223
  782 Fit      -0.341151
  783 Fit      -0.353280
  784 Fit      -0.349494
  785 Fit      -0.337546
  786 Fit      -0.333262
  787 Fit      -0.336440
  788 Fit      -0.343012
  789 Fit      -0.336181
  790 Fit      -0.335579
  791 Fit      -0.341539
  792 Fit      -0.352784
  793 Fit      -0.345504
  794 Fit      -0.347382
  795 Fit      -0.365365
  796 Fit      -0.346846
  797 Fit      -0.347849
  798 Fit      -0.362844
  799 Fit      -0.352260
  800 Fit      -0.334112
  801 Fit      -0.335854
  802 Fit      -0.343745
  803 Fit      -0.357504
  804 Fit      -0.378347
  805 Fit      -0.359713
  806 Fit      -0.346648
  807 Fit      -0.337967
  808 Fit      -0.329262
  809 Fit      -0.331538
  810 Fit      -0.339653
  811 Fit      -0.352391
  812 Fit      -0.368029
  813 Fit      -0.385412
  814 Fit      -0.398459
  815 Fit      -0.395188
  816 Fit      -0.376422
  817 Fit      -0.356676
  818 Fit      -0.342113
  819 Fit      -0.332930
  820 Fit      -0.331771
  821 Fit      -0.337323
  822 Fit      -0.351854
  823 Fit      -0.363100
  824 Fit      -0.355140
  825 Fit      -0.339072
  826 Fit      -0.342377
  827 Fit      -0.348721
  828 Fit      -0.354858
  829 Fit      -0.372936
  830 Fit      -0.330348
  831 Fit      -0.330034
  832 Fit      -0.333067
  833 Fit      -0.337460
  834 Fit      -0.340890
  835 Fit      -0.343169
  836 Fit      -0.347960
  837 Fit      -0.362452
  838 Fit      -0.397900
  839 Fit      -0.326969
  840 Fit      -0.323883
  841 Fit      -0.327427
  842 Fit      -0.335581
  843 Fit      -0.352083
  844 Fit      -0.366958
  845 Fit      -0.326908
  846 Fit      -0.332545
  847 Fit      -0.370383
  848 Fit      -0.336868
  849 Fit      -0.373253
  850 Fit      -0.393593
  851 Fit      -0.404062
  852 Fit      -0.347364
  853 Fit      -0.377763
  854 Fit      -0.401442
  855 Fit      -0.381207
  856 Fit      -0.368630
  857 Fit      -0.354556
  858 Fit      -0.353079
  859 Fit      -0.370809
  860 Fit      -0.360427
  861 Fit      -0.384813
  862 Fit      -0.374231
  863 Fit      -0.387076
  864 Fit      -0.401502
  865 Fit      -0.360864
  866 Fit      -0.348602
  867 Fit      -0.357219
  868 Fit      -0.344485
  869 Fit      -0.339010
  870 Fit      -0.344519
  871 Fit      -0.339340
  872 Fit      -0.335224
  873 Fit      -0.339660
  874 Fit      -0.396746
  875 Fit      -0.349854
  876 Fit      -0.343477
  877 Fit      -0.340105
  878 Fit      -0.342311
  879 Fit      -0.351281
  880 Fit      -0.391177
  881 Fit      -0.376639
  882 Fit      -0.370509
  883 Fit      -0.365308
  884 Fit      -0.358293
  885 Fit      -0.350299
  886 Fit      -0.353182
  887 Fit      -0.356233
  888 Fit      -0.362846
  889 Fit      -0.396818
  890 Fit      -0.376328
  891 Fit      -0.368844
  892 Fit      -0.366463
  893 Fit      -0.367894
  894 Fit      -0.373694
  895 Fit      -0.399833
  896 Fit      -0.380953
  897 Fit      -0.383817
  898 Fit      -0.405697
 -----------------------------------------------------------------
 Leave Link  602 at Tue May  4 22:09:21 2004, MaxMem=    6291456 cpu:       0.3

 Test job not archived.
 1\1\GINC-S003N001AMD\FOpt\RHF\6-31G(d)\C1H3O7P2(3-)\CUIGL\04-May-2004\
 0\\#RHF 6-31G* OPT POP=MK IOP(6/33=2)\\methyl-diphosphate opt and esp 
 calculation\\-3,1\C,-1.347342889,2.1361357242,-0.1093002587\H,-1.50225
 33391,2.9490631388,-0.8328436492\H,-0.2870422915,2.043387671,0.0981716
 4\H,-1.8667143916,2.4175398712,0.8118917296\O,-1.8793363336,0.97072334
 49,-0.6509245027\O,-1.666152319,-0.32295299,1.5102601976\O,2.240176324
 ,-1.1013763045,1.0329108659\O,-2.1841074926,-1.4991260636,-0.705271720
 2\O,1.6993257906,1.3285867588,0.4845439394\O,0.1159169601,-0.550843928
 6,-0.3341473593\O,2.4146546354,-0.2634384383,-1.3616605224\P,-1.397795
 2079,-0.477899337,0.0505243681\P,1.785544997,-0.1033929334,0.001001941
 6\\Version=x86-Linux-G03RevB.04\State=1-A\HF=-1244.9816097\RMSD=7.593e
 -09\RMSF=1.243e-05\Dipole=-1.932623,1.7321205,-0.2754254\PG=C01 [X(C1H
 3O7P2)]\\@


 I DO NOT DEFINE TIME, SPACE, PLACE, AND MOTION, AS BEING WELL KNOWN TO ALL.
                                            -- NEWTON (1642-1726), PRINCIPIA
 Job cpu time:  0 days  1 hours  0 minutes 28.9 seconds.
 File lengths (MBytes):  RWF=     25 Int=      0 D2E=      0 Chk=      6 Scr=      1
 Normal termination of Gaussian 03 at Tue May  4 22:09:22 2004.
