 Entering Gaussian System, Link 0=/home/case/qchem/g09revD01/g09/g09
 Input=tp.com
 Output=tp.log
 Initial command:
 /home/case/qchem/g09revD01/g09/l1.exe "/u1/scratch/case/Gau-24532.inp" -scrdir="/u1/scratch/case/"
 Entering Link 1 = /home/case/qchem/g09revD01/g09/l1.exe PID=     24543.
  
 Copyright (c) 1988,1990,1992,1993,1995,1998,2003,2009,2013,
            Gaussian, Inc.  All Rights Reserved.
  
 This is part of the Gaussian(R) 09 program.  It is based on
 the Gaussian(R) 03 system (copyright 2003, Gaussian, Inc.),
 the Gaussian(R) 98 system (copyright 1998, Gaussian, Inc.),
 the Gaussian(R) 94 system (copyright 1995, Gaussian, Inc.),
 the Gaussian 92(TM) system (copyright 1992, Gaussian, Inc.),
 the Gaussian 90(TM) system (copyright 1990, Gaussian, Inc.),
 the Gaussian 88(TM) system (copyright 1988, Gaussian, Inc.),
 the Gaussian 86(TM) system (copyright 1986, Carnegie Mellon
 University), and the Gaussian 82(TM) system (copyright 1983,
 Carnegie Mellon University). Gaussian is a federally registered
 trademark of Gaussian, Inc.
  
 This software contains proprietary and confidential information,
 including trade secrets, belonging to Gaussian, Inc.
  
 This software is provided under written license and may be
 used, copied, transmitted, or stored only in accord with that
 written license.
  
 The following legend is applicable only to US Government
 contracts under FAR:
  
                    RESTRICTED RIGHTS LEGEND
  
 Use, reproduction and disclosure by the US Government is
 subject to restrictions as set forth in subparagraphs (a)
 and (c) of the Commercial Computer Software - Restricted
 Rights clause in FAR 52.227-19.
  
 Gaussian, Inc.
 340 Quinnipiac St., Bldg. 40, Wallingford CT 06492
  
  
 ---------------------------------------------------------------
 Warning -- This program may not be used in any manner that
 competes with the business of Gaussian, Inc. or will provide
 assistance to any competitor of Gaussian, Inc.  The licensee
 of this program is prohibited from giving any competitor of
 Gaussian, Inc. access to this program.  By using this program,
 the user acknowledges that Gaussian, Inc. is engaged in the
 business of creating and licensing software in the field of
 computational chemistry and represents and warrants to the
 licensee that it is not a competitor of Gaussian, Inc. and that
 it will not use this program in any manner prohibited above.
 ---------------------------------------------------------------
  

 Cite this work as:
 Gaussian 09, Revision D.01,
 M. J. Frisch, G. W. Trucks, H. B. Schlegel, G. E. Scuseria, 
 M. A. Robb, J. R. Cheeseman, G. Scalmani, V. Barone, B. Mennucci, 
 G. A. Petersson, H. Nakatsuji, M. Caricato, X. Li, H. P. Hratchian, 
 A. F. Izmaylov, J. Bloino, G. Zheng, J. L. Sonnenberg, M. Hada, 
 M. Ehara, K. Toyota, R. Fukuda, J. Hasegawa, M. Ishida, T. Nakajima, 
 Y. Honda, O. Kitao, H. Nakai, T. Vreven, J. A. Montgomery, Jr., 
 J. E. Peralta, F. Ogliaro, M. Bearpark, J. J. Heyd, E. Brothers, 
 K. N. Kudin, V. N. Staroverov, T. Keith, R. Kobayashi, J. Normand, 
 K. Raghavachari, A. Rendell, J. C. Burant, S. S. Iyengar, J. Tomasi, 
 M. Cossi, N. Rega, J. M. Millam, M. Klene, J. E. Knox, J. B. Cross, 
 V. Bakken, C. Adamo, J. Jaramillo, R. Gomperts, R. E. Stratmann, 
 O. Yazyev, A. J. Austin, R. Cammi, C. Pomelli, J. W. Ochterski, 
 R. L. Martin, K. Morokuma, V. G. Zakrzewski, G. A. Voth, 
 P. Salvador, J. J. Dannenberg, S. Dapprich, A. D. Daniels, 
 O. Farkas, J. B. Foresman, J. V. Ortiz, J. Cioslowski, 
 and D. J. Fox, Gaussian, Inc., Wallingford CT, 2013.
 
 ******************************************
 Gaussian 09:  AS64L-G09RevD.01 24-Apr-2013
                16-Sep-2015 
 ******************************************
 %chk=molecule
 ------------------------------------------------------------
 #HF/6-31G* SCF=tight Test Pop=MK iop(6/33=2) iop(6/42=6) opt
 ------------------------------------------------------------
 1/18=20,19=15,38=1/1,3;
 2/9=110,12=2,17=6,18=5,40=1/2;
 3/5=1,6=6,7=1,11=9,16=1,25=1,30=1,71=1/1,2,3;
 4//1;
 5/5=2,32=2,38=5/2;
 6/7=2,8=2,9=2,10=2,15=8,20=1,28=1,33=2,42=6/1,2;
 7//1,2,3,16;
 1/18=20,19=15/3(2);
 2/9=110/2;
 99//99;
 2/9=110/2;
 3/5=1,6=6,7=1,11=9,16=1,25=1,30=1,71=1/1,2,3;
 4/5=5,16=3,69=1/1;
 5/5=2,32=2,38=5/2;
 7//1,2,3,16;
 1/18=20,19=15/3(-5);
 2/9=110/2;
 6/7=2,8=2,9=2,10=2,15=8,19=2,20=1,28=1,33=2,42=6/1,2;
 99/9=1/99;
 ---------------------
 remark line goes here
 ---------------------
 Symbolic Z-matrix:
 Charge =  0 Multiplicity = 1
 C                    -1.959     0.102     0.795 
 C                    -1.249     0.602    -0.303 
 C                    -2.071     0.865     1.963 
 C                    -0.646     1.863    -0.234 
 C                    -1.472     2.129     2.031 
 C                    -0.759     2.627     0.934 
 H                    -1.558     2.719     2.931 
 S                    -2.782     0.365     3.06 
 H                    -3.541     0.979     3.274 
 H                    -0.787    -0.043    -0.938 
 H                     0.373     2.045    -0.784 
 H                    -0.092     3.578     0.781 
 H                    -2.379    -0.916     0.901 
 

 GradGradGradGradGradGradGradGradGradGradGradGradGradGradGradGradGradGrad
 Berny optimization.
 Initialization pass.
                           ----------------------------
                           !    Initial Parameters    !
                           ! (Angstroms and Degrees)  !
 --------------------------                            --------------------------
 ! Name  Definition              Value          Derivative Info.                !
 --------------------------------------------------------------------------------
 ! R1    R(1,2)                  1.3999         estimate D2E/DX2                !
 ! R2    R(1,3)                  1.3996         estimate D2E/DX2                !
 ! R3    R(1,13)                 1.1063         estimate D2E/DX2                !
 ! R4    R(2,4)                  1.3995         estimate D2E/DX2                !
 ! R5    R(2,10)                 1.0162         estimate D2E/DX2                !
 ! R6    R(3,5)                  1.4004         estimate D2E/DX2                !
 ! R7    R(3,8)                  1.3996         estimate D2E/DX2                !
 ! R8    R(4,6)                  1.4002         estimate D2E/DX2                !
 ! R9    R(4,11)                 1.1722         estimate D2E/DX2                !
 ! R10   R(5,6)                  1.3999         estimate D2E/DX2                !
 ! R11   R(5,7)                  1.0796         estimate D2E/DX2                !
 ! R12   R(6,12)                 1.1716         estimate D2E/DX2                !
 ! R13   R(8,9)                  0.9994         estimate D2E/DX2                !
 ! A1    A(2,1,3)              120.0278         estimate D2E/DX2                !
 ! A2    A(2,1,13)             126.6088         estimate D2E/DX2                !
 ! A3    A(3,1,13)             113.0347         estimate D2E/DX2                !
 ! A4    A(1,2,4)              120.1122         estimate D2E/DX2                !
 ! A5    A(1,2,10)             119.6033         estimate D2E/DX2                !
 ! A6    A(4,2,10)             114.0058         estimate D2E/DX2                !
 ! A7    A(1,3,5)              119.8905         estimate D2E/DX2                !
 ! A8    A(1,3,8)              119.9987         estimate D2E/DX2                !
 ! A9    A(5,3,8)              120.1108         estimate D2E/DX2                !
 ! A10   A(2,4,6)              119.8671         estimate D2E/DX2                !
 ! A11   A(2,4,11)             119.4291         estimate D2E/DX2                !
 ! A12   A(6,4,11)             112.1374         estimate D2E/DX2                !
 ! A13   A(3,5,6)              120.0586         estimate D2E/DX2                !
 ! A14   A(3,5,7)              119.9791         estimate D2E/DX2                !
 ! A15   A(6,5,7)              119.9621         estimate D2E/DX2                !
 ! A16   A(4,6,5)              120.0431         estimate D2E/DX2                !
 ! A17   A(4,6,12)             106.7385         estimate D2E/DX2                !
 ! A18   A(5,6,12)             132.9241         estimate D2E/DX2                !
 ! A19   A(3,8,9)              109.5204         estimate D2E/DX2                !
 ! D1    D(3,1,2,4)              0.2211         estimate D2E/DX2                !
 ! D2    D(3,1,2,10)           150.7278         estimate D2E/DX2                !
 ! D3    D(13,1,2,4)          -172.7162         estimate D2E/DX2                !
 ! D4    D(13,1,2,10)          -22.2094         estimate D2E/DX2                !
 ! D5    D(2,1,3,5)              0.0134         estimate D2E/DX2                !
 ! D6    D(2,1,3,8)            179.9437         estimate D2E/DX2                !
 ! D7    D(13,1,3,5)           173.8565         estimate D2E/DX2                !
 ! D8    D(13,1,3,8)            -6.2132         estimate D2E/DX2                !
 ! D9    D(1,2,4,6)             -0.2799         estimate D2E/DX2                !
 ! D10   D(1,2,4,11)           145.095          estimate D2E/DX2                !
 ! D11   D(10,2,4,6)          -152.3373         estimate D2E/DX2                !
 ! D12   D(10,2,4,11)           -6.9624         estimate D2E/DX2                !
 ! D13   D(1,3,5,6)             -0.1883         estimate D2E/DX2                !
 ! D14   D(1,3,5,7)            179.9626         estimate D2E/DX2                !
 ! D15   D(8,3,5,6)            179.8814         estimate D2E/DX2                !
 ! D16   D(8,3,5,7)              0.0323         estimate D2E/DX2                !
 ! D17   D(1,3,8,9)           -119.933          estimate D2E/DX2                !
 ! D18   D(5,3,8,9)             59.9973         estimate D2E/DX2                !
 ! D19   D(2,4,6,5)              0.1048         estimate D2E/DX2                !
 ! D20   D(2,4,6,12)           174.6512         estimate D2E/DX2                !
 ! D21   D(11,4,6,5)          -147.6008         estimate D2E/DX2                !
 ! D22   D(11,4,6,12)           26.9456         estimate D2E/DX2                !
 ! D23   D(3,5,6,4)              0.1293         estimate D2E/DX2                !
 ! D24   D(3,5,6,12)          -172.7309         estimate D2E/DX2                !
 ! D25   D(7,5,6,4)            179.9784         estimate D2E/DX2                !
 ! D26   D(7,5,6,12)             7.1182         estimate D2E/DX2                !
 --------------------------------------------------------------------------------
 Trust Radius=3.00D-01 FncErr=1.00D-07 GrdErr=1.00D-07
 Number of steps in this run=     68 maximum allowed number of steps=    100.
 GradGradGradGradGradGradGradGradGradGradGradGradGradGradGradGradGradGrad

                          Input orientation:                          
 ---------------------------------------------------------------------
 Center     Atomic      Atomic             Coordinates (Angstroms)
 Number     Number       Type             X           Y           Z
 ---------------------------------------------------------------------
      1          6           0       -1.959000    0.102000    0.795000
      2          6           0       -1.249000    0.602000   -0.303000
      3          6           0       -2.071000    0.865000    1.963000
      4          6           0       -0.646000    1.863000   -0.234000
      5          6           0       -1.472000    2.129000    2.031000
      6          6           0       -0.759000    2.627000    0.934000
      7          1           0       -1.558000    2.719000    2.931000
      8         16           0       -2.782000    0.365000    3.060000
      9          1           0       -3.541000    0.979000    3.274000
     10          1           0       -0.787000   -0.043000   -0.938000
     11          1           0        0.373000    2.045000   -0.784000
     12          1           0       -0.092000    3.578000    0.781000
     13          1           0       -2.379000   -0.916000    0.901000
 ---------------------------------------------------------------------
                    Distance matrix (angstroms):
                    1          2          3          4          5
     1  C    0.000000
     2  C    1.399894   0.000000
     3  C    1.399620   2.424791   0.000000
     4  C    2.425682   1.399461   2.802399   0.000000
     5  C    2.423550   2.798038   1.400400   2.425543   0.000000
     6  C    2.799097   2.422993   2.425867   1.400246   1.399922
     7  H    3.401762   3.877619   2.153488   3.403190   1.079581
     8  S    2.424195   3.703515   1.399618   4.202016   2.426239
     9  H    3.068761   4.265011   1.972972   4.633416   2.673632
    10  H    2.097117   1.016216   3.299837   2.036746   3.741894
    11  H    3.421508   2.223622   3.861547   1.172171   3.366795
    12  H    3.945689   3.371985   3.560047   2.068421   2.359343
    13  H    1.106327   2.242953   2.096347   3.466173   3.372176
                    6          7          8          9         10
     6  C    0.000000
     7  H    2.152876   0.000000
     8  S    3.705273   2.656338   0.000000
     9  H    3.991369   2.660364   0.999436   0.000000
    10  H    3.260992   4.815833   4.486702   5.135167   0.000000
    11  H    2.138147   4.240786   5.249072   5.737867   2.393545
    12  H    1.171622   2.740353   4.770043   4.986527   4.068123
    13  H    3.895939   4.243603   2.542568   3.251522   2.584282
                   11         12         13
    11  H    0.000000
    12  H    2.239540   0.000000
    13  H    4.379526   5.043888   0.000000
 Stoichiometry    C6H6S
 Framework group  C1[X(C6H6S)]
 Deg. of freedom    33
 Full point group                 C1      NOp   1
 Largest Abelian subgroup         C1      NOp   1
 Largest concise Abelian subgroup C1      NOp   1
                         Standard orientation:                         
 ---------------------------------------------------------------------
 Center     Atomic      Atomic             Coordinates (Angstroms)
 Number     Number       Type             X           Y           Z
 ---------------------------------------------------------------------
      1          6           0        0.080650    1.222627    0.038601
      2          6           0        1.479738    1.223347    0.086114
      3          6           0       -0.617779    0.010819   -0.012920
      4          6           0        2.183157    0.013546    0.077554
      5          6           0        0.085301   -1.200290   -0.016563
      6          6           0        1.484536   -1.198926    0.027267
      7          1           0       -0.451999   -2.135852   -0.055664
      8         16           0       -2.016631    0.010784   -0.059218
      9          1           0       -2.377021   -0.478256    0.734402
     10          1           0        1.995109    2.004049   -0.310863
     11          1           0        3.215709   -0.048426   -0.473791
     12          1           0        2.286841   -2.046693   -0.074205
     13          1           0       -0.576160    2.105900   -0.072712
 ---------------------------------------------------------------------
 Rotational constants (GHZ):      5.6698020      1.8603626      1.4095001
 Standard basis: 6-31G(d) (6D, 7F)
 There are   121 symmetry adapted cartesian basis functions of A   symmetry.
 There are   121 symmetry adapted basis functions of A   symmetry.
   121 basis functions,   244 primitive gaussians,   121 cartesian basis functions
    29 alpha electrons       29 beta electrons
       nuclear repulsion energy       338.0362698622 Hartrees.
 NAtoms=   13 NActive=   13 NUniq=   13 SFac= 1.00D+00 NAtFMM=   60 NAOKFM=F Big=F
 Integral buffers will be    131072 words long.
 Raffenetti 1 integral format.
 Two-electron integral symmetry is turned on.
 One-electron integrals computed using PRISM.
 NBasis=   121 RedAO= T EigKep=  7.36D-04  NBF=   121
 NBsUse=   121 1.00D-06 EigRej= -1.00D+00 NBFU=   121
 ExpMin= 1.17D-01 ExpMax= 2.19D+04 ExpMxC= 3.30D+03 IAcc=1 IRadAn=         1 AccDes= 0.00D+00
 Harris functional with IExCor=  205 and IRadAn=       1 diagonalized for initial guess.
 HarFok:  IExCor=  205 AccDes= 0.00D+00 IRadAn=         1 IDoV= 1 UseB2=F ITyADJ=14
 ICtDFT=  3500011 ScaDFX=  1.000000  1.000000  1.000000  1.000000
 FoFCou: FMM=F IPFlag=           0 FMFlag=      100000 FMFlg1=           0
         NFxFlg=           0 DoJE=T BraDBF=F KetDBF=T FulRan=T
         wScrn=  0.000000 ICntrl=     500 IOpCl=  0 I1Cent=   200000004 NGrid=           0
         NMat0=    1 NMatS0=      1 NMatT0=    0 NMatD0=    1 NMtDS0=    0 NMtDT0=    0
 Petite list used in FoFCou.
 Keep R1 ints in memory in canonical form, NReq=28215247.
 Requested convergence on RMS density matrix=1.00D-08 within 128 cycles.
 Requested convergence on MAX density matrix=1.00D-06.
 Requested convergence on             energy=1.00D-06.
 No special actions if energy rises.
 SCF Done:  E(RHF) =  -627.910624798     A.U. after   15 cycles
            NFock= 15  Conv=0.75D-08     -V/T= 1.9974

 **********************************************************************

            Population analysis using the SCF density.

 **********************************************************************

 Orbital symmetries:
 BldTbl:  Degeneracy threshold= 1.00D-02
       Occupied  (A) (A) (A) (A) (A) (A) (A) (A) (A) (A) (A) (A)
                 (A) (A) (A) (A) (A) (A) (A) (A) (A) (A) (A) (A)
                 (A) (A) (A) (A) (A)
       Virtual   (A) (A) (A) (A) (A) (A) (A) (A) (A) (A) (A) (A)
                 (A) (A) (A) (A) (A) (A) (A) (A) (A) (A) (A) (A)
                 (A) (A) (A) (A) (A) (A) (A) (A) (A) (A) (A) (A)
                 (A) (A) (A) (A) (A) (A) (A) (A) (A) (A) (A) (A)
                 (A) (A) (A) (A) (A) (A) (A) (A) (A) (A) (A) (A)
                 (A) (A) (A) (A) (A) (A) (A) (A) (A) (A) (A) (A)
                 (A) (A) (A) (A) (A) (A) (A) (A) (A) (A) (A) (A)
                 (A) (A) (A) (A) (A) (A) (A) (A)
 The electronic state is 1-A.
 Alpha  occ. eigenvalues --  -91.88953 -11.25490 -11.24964 -11.24781 -11.24675
 Alpha  occ. eigenvalues --  -11.24300 -11.23618  -8.93551  -6.62177  -6.61582
 Alpha  occ. eigenvalues --   -6.61105  -1.22467  -1.11689  -1.02105  -0.97133
 Alpha  occ. eigenvalues --   -0.85650  -0.81629  -0.72678  -0.66205  -0.65295
 Alpha  occ. eigenvalues --   -0.61264  -0.58121  -0.56041  -0.50580  -0.49461
 Alpha  occ. eigenvalues --   -0.46023  -0.38102  -0.33984  -0.29930
 Alpha virt. eigenvalues --    0.10219   0.12641   0.21893   0.25303   0.27819
 Alpha virt. eigenvalues --    0.28858   0.30077   0.32326   0.33660   0.35259
 Alpha virt. eigenvalues --    0.38677   0.41384   0.44329   0.47247   0.50371
 Alpha virt. eigenvalues --    0.55095   0.59718   0.66983   0.71057   0.71526
 Alpha virt. eigenvalues --    0.75604   0.78317   0.79312   0.81251   0.82042
 Alpha virt. eigenvalues --    0.85829   0.85858   0.87402   0.87628   0.89952
 Alpha virt. eigenvalues --    0.92493   0.94556   0.97889   0.99508   1.03112
 Alpha virt. eigenvalues --    1.05400   1.07730   1.09329   1.11294   1.13276
 Alpha virt. eigenvalues --    1.16750   1.17869   1.20825   1.21962   1.23977
 Alpha virt. eigenvalues --    1.29864   1.32665   1.33699   1.41053   1.49079
 Alpha virt. eigenvalues --    1.51137   1.53236   1.61925   1.66968   1.73286
 Alpha virt. eigenvalues --    1.76151   1.89351   1.93827   1.95641   1.99853
 Alpha virt. eigenvalues --    2.04120   2.09379   2.12081   2.15418   2.27158
 Alpha virt. eigenvalues --    2.34179   2.38159   2.45167   2.47842   2.49619
 Alpha virt. eigenvalues --    2.52585   2.55426   2.61498   2.62081   2.69435
 Alpha virt. eigenvalues --    2.84109   2.87620   2.97276   2.98658   3.07412
 Alpha virt. eigenvalues --    3.08159   3.12289   3.14402   3.41063   3.69061
 Alpha virt. eigenvalues --    4.40582   4.50740   4.53676   4.60562   4.74238
 Alpha virt. eigenvalues --    4.81618   5.12065
          Condensed to atoms (all electrons):
               1          2          3          4          5          6
     1  C    5.040730   0.520707   0.544899  -0.047081  -0.040400  -0.030995
     2  C    0.520707   4.893145  -0.048307   0.542025  -0.032872  -0.053394
     3  C    0.544899  -0.048307   4.917764  -0.027932   0.517197  -0.038854
     4  C   -0.047081   0.542025  -0.027932   4.969683  -0.055535   0.516475
     5  C   -0.040400  -0.032872   0.517197  -0.055535   5.044476   0.526784
     6  C   -0.030995  -0.053394  -0.038854   0.516475   0.526784   4.948021
     7  H    0.003274  -0.000081  -0.045022   0.003124   0.389880  -0.029956
     8  S   -0.136043   0.011216   0.265250   0.001087  -0.120778   0.009406
     9  H   -0.001796  -0.000260  -0.023130  -0.000126  -0.010092   0.000476
    10  H   -0.033923   0.388716   0.002787  -0.038047   0.000315   0.003989
    11  H    0.002260  -0.031281   0.000338   0.382288   0.002573  -0.041256
    12  H    0.000316   0.003657   0.000957  -0.047505  -0.015415   0.373668
    13  H    0.392122  -0.026229  -0.049864   0.002541   0.003949  -0.000127
               7          8          9         10         11         12
     1  C    0.003274  -0.136043  -0.001796  -0.033923   0.002260   0.000316
     2  C   -0.000081   0.011216  -0.000260   0.388716  -0.031281   0.003657
     3  C   -0.045022   0.265250  -0.023130   0.002787   0.000338   0.000957
     4  C    0.003124   0.001087  -0.000126  -0.038047   0.382288  -0.047505
     5  C    0.389880  -0.120778  -0.010092   0.000315   0.002573  -0.015415
     6  C   -0.029956   0.009406   0.000476   0.003989  -0.041256   0.373668
     7  H    0.466901  -0.001674  -0.000027   0.000012  -0.000126  -0.000763
     8  S   -0.001674  16.004449   0.146994  -0.000433   0.000011  -0.000221
     9  H   -0.000027   0.146994   0.733873   0.000001   0.000000  -0.000003
    10  H    0.000012  -0.000433   0.000001   0.483025  -0.002147  -0.000211
    11  H   -0.000126   0.000011   0.000000  -0.002147   0.510805  -0.004121
    12  H   -0.000763  -0.000221  -0.000003  -0.000211  -0.004121   0.491063
    13  H   -0.000079  -0.004588  -0.000405  -0.001355  -0.000080   0.000008
              13
     1  C    0.392122
     2  C   -0.026229
     3  C   -0.049864
     4  C    0.002541
     5  C    0.003949
     6  C   -0.000127
     7  H   -0.000079
     8  S   -0.004588
     9  H   -0.000405
    10  H   -0.001355
    11  H   -0.000080
    12  H    0.000008
    13  H    0.462523
 Mulliken charges:
               1
     1  C   -0.214070
     2  C   -0.167042
     3  C   -0.016084
     4  C   -0.200999
     5  C   -0.210083
     6  C   -0.184239
     7  H    0.214536
     8  S   -0.174675
     9  H    0.154497
    10  H    0.197269
    11  H    0.180736
    12  H    0.198568
    13  H    0.221586
 Sum of Mulliken charges =   0.00000
 Mulliken charges with hydrogens summed into heavy atoms:
               1
     1  C    0.007516
     2  C    0.030227
     3  C   -0.016084
     4  C   -0.020264
     5  C    0.004453
     6  C    0.014329
     8  S   -0.020178
 DipInt: DoE/N= T F RetVal/Mat= T F Init=T NMatP=  1 IDeriv=0 Min/MaxMlt=  0  4
 Entering OneElI...
 OneElI was handed    33514686 working-precision words.
 Multipole integrals L=0 to 4 MinM= 0 MaxM= 0.
 Requested accuracy = 0.1000D-12
 ShPair: Thresh= 1.00D-13 NBox=     0 BxSize= 0.00D+00 RnKept= 1.08D+01
         NSMCal=                  861 NSMKep=                 844
 PrsmSu:  NPrtUS=   1 ThrOK=F IAlg=1 NPAlg=1 LenDen=           0.
 Prism:   IPart=     0 DynPar=F LinDyn=F Incr=           8.
 PRISM was handed    33427318 working-precision words and   844 shell-pairs
 IPart=  0 NShTot=         844 NBatch=          53 AvBLen=        15.9
 PrSmSu:  NxtVal=              9.
 Electronic moments (au):
        -58.00000000          0.45383669         -0.26387898          0.13140415
       -564.22703569       -221.32927861        -41.57350689          1.01305336
         -3.65242258         -1.15275713        -46.18681143         -2.30025876
         -0.93009473       -268.20004591         19.26773778         20.35017978
         -5.52264100          0.51144634          2.64751042         -3.13001003
     -10168.05183767      -2373.46052491       -166.07394668         77.34724514
         61.31418684         50.04027038         -1.80158869         -4.13186003
         -3.85549766      -1485.14813868       -463.60151403       -185.43839719
         13.57427146          8.15968147         -8.19189069
 Electronic spatial extent (au):  <R**2>=            827.1298
 DipInt: DoE/N= F T RetVal/Mat= T F Init=T NMatP=  1 IDeriv=0 Min/MaxMlt=  0  4
 Nuclear    moments (au):
         58.00000000          0.00000000          0.00000000          0.00000000
        529.00565374        188.02970628          3.66780122          0.00000000
          0.00000000          0.00000000         56.10759819          1.32561542
          1.77123027        269.85650141        -29.28148087        -17.43162703
         -2.16551172         -0.15362342         -5.11147461          5.12583832
       8185.90245922       1605.59022927          4.48189100        -54.74151927
       -180.00895206        -42.86873287        -10.50417455        -16.90234678
         -3.04906115       1025.51898263         80.24426826          8.43447504
        -32.09445768        -22.88534462         12.86123109
 Total      moments (au):
          0.00000000          0.45383669         -0.26387898          0.13140415
        -35.22138195        -33.29957233        -37.90570567          1.01305336
         -3.65242258         -1.15275713          9.92078676         -0.97464334
          0.84113554          1.65645550        -10.01374309          2.91855275
         -7.68815272          0.35782292         -2.46396419          1.99582829
      -1982.14937845       -767.87029564       -161.59205569         22.60572588
       -118.69476523          7.17153751        -12.30576324        -21.03420681
         -6.90455881       -459.62915604       -383.35724576       -177.00392215
        -18.52018622        -14.72566315          4.66934040
 Traceless Quadrup. (au):
          0.25417137          2.17598099         -2.43015235          1.01305336
         -3.65242258         -1.15275713
 Charge=              0.0000 electrons
 Dipole moment (field-independent basis, Debye):
    X=              1.1535    Y=             -0.6707    Z=              0.3340  Tot=              1.3755
 Quadrupole moment (field-independent basis, Debye-Ang):
   XX=            -47.3740   YY=            -44.7891   ZZ=            -50.9845
   XY=              1.3626   XZ=             -4.9126   YZ=             -1.5505
 Traceless Quadrupole moment (field-independent basis, Debye-Ang):
   XX=              0.3419   YY=              2.9268   ZZ=             -3.2686
   XY=              1.3626   XZ=             -4.9126   YZ=             -1.5505
 Octapole moment (field-independent basis, Debye-Ang**2):
  XXX=              7.0612  YYY=             -0.6937  ZZZ=              0.5987  XYY=              1.1790
  XXY=             -7.1274  XXZ=              2.0773  XZZ=             -5.4721  YZZ=              0.2547
  YYZ=             -1.7538  XYZ=              1.4206
 Hexadecapole moment (field-independent basis, Debye-Ang**3):
 XXXX=           -746.5725 YYYY=           -289.2168 ZZZZ=            -60.8633 XXXY=              8.5144
 XXXZ=            -44.7061 YYYX=              2.7011 YYYZ=             -4.6349 ZZZX=             -7.9225
 ZZZY=             -2.6006 XXYY=           -173.1184 XXZZ=           -144.3907 YYZZ=            -66.6682
 XXYZ=             -6.9756 YYXZ=             -5.5464 ZZXY=              1.7587
 N-N= 3.380362698622D+02 E-N=-2.160542095410D+03  KE= 6.295193427566D+02
 Entering OneElI...
 OneElI was handed    33521621 working-precision words.
 Calculate electrostatic properties
    NBasis =   121  MinDer = 0  MaxDer = 0
    NGrid  =    13  NMatD  =   1
 Requested accuracy = 0.1000D-12
 ShPair: Thresh= 1.00D-13 NBox=     0 BxSize= 0.00D+00 RnKept= 1.08D+01
         NSMCal=                  861 NSMKep=                 818
 PrsmSu:  NPrtUS=   1 ThrOK=F IAlg=1 NPAlg=1 LenDen=           0.
 Prism:   IPart=     0 DynPar=F LinDyn=F Incr=         106.
 PRISM was handed    33438527 working-precision words and   818 shell-pairs
 IPart=  0 NShTot=       10634 NBatch=         818 AvBLen=        13.0
 PrSmSu:  NxtVal=            107.
 --------------------------------------------------------
       Center         ----      EFG at Nuclei      ----
                      3XX-RR        3YY-RR        3ZZ-RR
 --------------------------------------------------------
     1   Atom        0.213237      0.112368     -0.325605
     2   Atom        0.155860      0.202463     -0.358324
     3   Atom        0.127699      0.145782     -0.273481
     4   Atom        0.074016      0.238235     -0.312251
     5   Atom        0.153907      0.147098     -0.301005
     6   Atom        0.192950      0.150243     -0.343193
     7   Atom        0.029930     -0.200704      0.170774
     8   Atom       -1.067140      0.988618      0.078522
     9   Atom        0.356482      0.209698     -0.566180
    10   Atom        0.044102     -0.192317      0.148214
    11   Atom       -0.134613      0.078582      0.056031
    12   Atom       -0.026865     -0.073365      0.100230
    13   Atom       -0.004931     -0.138146      0.143077
 --------------------------------------------------------
                        XY            XZ            YZ
 --------------------------------------------------------
     1   Atom        0.020665     -0.062512     -0.067479
     2   Atom        0.005555     -0.074050     -0.048970
     3   Atom        0.019992     -0.029097     -0.031612
     4   Atom       -0.004163     -0.045234     -0.024454
     5   Atom       -0.011983      0.043646     -0.006306
     6   Atom        0.077366     -0.029967     -0.005889
     7   Atom       -0.199629     -0.008805     -0.018933
     8   Atom       -0.476376      0.594994      0.710496
     9   Atom       -0.331821      0.536868      0.780296
    10   Atom       -0.267525      0.130903      0.203104
    11   Atom        0.009268      0.112275     -0.003561
    12   Atom        0.132159      0.017912     -0.019151
    13   Atom        0.180507     -0.024688      0.030117
 --------------------------------------------------------


 ---------------------------------------------------------------------------------
              Nuclear Quadrupole Coupling Constant in Principal Axis System
 ---------------------------------------------------------------------------------

       Atom             a.u.   MegaHertz   Gauss  10(-4) cm-1        Axes


 ---------------------------------------------------------------------------------

 No NMR shielding tensors so no spin-rotation constants.
 Leave Link  601 at Wed Sep 16 15:32:15 2015, MaxMem=    33554432 cpu:         0.2
 FitSet:  NAtFit=    13 NAtPot=    13 NAtFrz=     0 MDM=    17 TotChg=   0.00000
 Merz-Kollman atomic radii used.
 Atom Element Radius
    1     6    1.50
    2     6    1.50
    3     6    1.50
    4     6    1.50
    5     6    1.50
    6     6    1.50
    7     1    1.20
    8    16    1.75
    9     1    1.20
   10     1    1.20
   11     1    1.20
   12     1    1.20
   13     1    1.20
 Generate VDW surfaces: Layer= 4 Dens= 6 Start= 1.400 Inc= 0.200

 **********************************************************************

            Electrostatic Properties Using The SCF Density

 **********************************************************************

       Atomic Center    1 is at   0.080650  1.222627  0.038601
       Atomic Center    2 is at   1.479738  1.223347  0.086114
       Atomic Center    3 is at  -0.617779  0.010819 -0.012920
       Atomic Center    4 is at   2.183157  0.013546  0.077554
       Atomic Center    5 is at   0.085301 -1.200290 -0.016563
       Atomic Center    6 is at   1.484536 -1.198926  0.027267
       Atomic Center    7 is at  -0.451999 -2.135852 -0.055664
       Atomic Center    8 is at  -2.016631  0.010784 -0.059218
       Atomic Center    9 is at  -2.377021 -0.478256  0.734402
       Atomic Center   10 is at   1.995109  2.004049 -0.310863
       Atomic Center   11 is at   3.215709 -0.048426 -0.473791
       Atomic Center   12 is at   2.286841 -2.046693 -0.074205
       Atomic Center   13 is at  -0.576160  2.105900 -0.072712
      ESP Fit Center   14 is at   0.080650  1.222627  2.138601
      ESP Fit Center   15 is at   0.490340  1.222627  2.098250
      ESP Fit Center   16 is at   0.285495  1.577429  2.098250
      ESP Fit Center   17 is at  -0.124194  1.577429  2.098250
      ESP Fit Center   18 is at  -0.329039  1.222627  2.098250
      ESP Fit Center   19 is at  -0.124194  0.867826  2.098250
      ESP Fit Center   20 is at   0.285495  0.867826  2.098250
      ESP Fit Center   21 is at   0.482468  1.918596  1.978748
      ESP Fit Center   22 is at   0.080650  2.026263  1.978748
      ESP Fit Center   23 is at  -0.321167  1.918596  1.978748
      ESP Fit Center   24 is at  -0.615318  1.624445  1.978748
      ESP Fit Center   25 is at  -0.722985  1.222627  1.978748
      ESP Fit Center   26 is at  -0.615318  0.820810  1.978748
      ESP Fit Center   27 is at   0.080650  0.418992  1.978748
      ESP Fit Center   28 is at   0.482468  0.526659  1.978748
      ESP Fit Center   29 is at   0.600692  2.267012  1.784687
      ESP Fit Center   30 is at   0.188300  2.384348  1.784687
      ESP Fit Center   31 is at  -0.238632  2.344787  1.784687
      ESP Fit Center   32 is at  -0.622442  2.153672  1.784687
      ESP Fit Center   33 is at  -0.911296  1.836815  1.784687
      ESP Fit Center   34 is at  -1.066182  1.437008  1.784687
      ESP Fit Center   35 is at   0.600692  0.178243  1.784687
      ESP Fit Center   36 is at   0.697510  2.573362  1.523525
      ESP Fit Center   37 is at   0.291977  2.692437  1.523525
      ESP Fit Center   38 is at  -0.130676  2.692437  1.523525
      ESP Fit Center   39 is at  -1.168547  2.025438  1.523525
      ESP Fit Center   40 is at   0.699821  2.855246  1.205298
      ESP Fit Center   41 is at   0.291118  2.955983  1.205298
      ESP Fit Center   42 is at   0.599695  3.092056  0.842236
      ESP Fit Center   43 is at   0.599695  3.092056 -0.765034
      ESP Fit Center   44 is at   0.699821  2.855246 -1.128097
      ESP Fit Center   45 is at   0.697510  2.573362 -1.446323
      ESP Fit Center   46 is at   0.291977  2.692437 -1.446323
      ESP Fit Center   47 is at   0.600692  2.267012 -1.707485
      ESP Fit Center   48 is at   0.188300  2.384348 -1.707485
      ESP Fit Center   49 is at  -0.238632  2.344787 -1.707485
      ESP Fit Center   50 is at  -0.911296  1.836815 -1.707485
      ESP Fit Center   51 is at   0.776619  1.624445 -1.901546
      ESP Fit Center   52 is at   0.482468  1.918596 -1.901546
      ESP Fit Center   53 is at   0.080650  2.026263 -1.901546
      ESP Fit Center   54 is at  -0.321167  1.918596 -1.901546
      ESP Fit Center   55 is at  -0.615318  1.624445 -1.901546
      ESP Fit Center   56 is at  -0.722985  1.222627 -1.901546
      ESP Fit Center   57 is at   0.482468  0.526659 -1.901546
      ESP Fit Center   58 is at   0.776619  0.820810 -1.901546
      ESP Fit Center   59 is at   0.490340  1.222627 -2.021048
      ESP Fit Center   60 is at   0.285495  1.577429 -2.021048
      ESP Fit Center   61 is at  -0.124194  1.577429 -2.021048
      ESP Fit Center   62 is at  -0.329039  1.222627 -2.021048
      ESP Fit Center   63 is at  -0.124194  0.867826 -2.021048
      ESP Fit Center   64 is at   0.285495  0.867826 -2.021048
      ESP Fit Center   65 is at   0.080650  1.222627 -2.061399
      ESP Fit Center   66 is at   1.479738  1.223347  2.186114
      ESP Fit Center   67 is at   1.889428  1.223347  2.145763
      ESP Fit Center   68 is at   1.684583  1.578149  2.145763
      ESP Fit Center   69 is at   1.274893  1.578149  2.145763
      ESP Fit Center   70 is at   1.070048  1.223347  2.145763
      ESP Fit Center   71 is at   1.274893  0.868545  2.145763
      ESP Fit Center   72 is at   1.684583  0.868545  2.145763
      ESP Fit Center   73 is at   2.283373  1.223347  2.026261
      ESP Fit Center   74 is at   2.175706  1.625164  2.026261
      ESP Fit Center   75 is at   1.881556  1.919315  2.026261
      ESP Fit Center   76 is at   1.479738  2.026982  2.026261
      ESP Fit Center   77 is at   1.077920  1.919315  2.026261
      ESP Fit Center   78 is at   0.783769  1.625164  2.026261
      ESP Fit Center   79 is at   0.783769  0.821529  2.026261
      ESP Fit Center   80 is at   1.077920  0.527378  2.026261
      ESP Fit Center   81 is at   1.479738  0.419712  2.026261
      ESP Fit Center   82 is at   2.175706  0.821529  2.026261
      ESP Fit Center   83 is at   2.646435  1.223347  1.832200
      ESP Fit Center   84 is at   2.567651  1.644807  1.832200
      ESP Fit Center   85 is at   2.341938  2.009346  1.832200
      ESP Fit Center   86 is at   1.999780  2.267732  1.832200
      ESP Fit Center   87 is at   1.587387  2.385067  1.832200
      ESP Fit Center   88 is at   1.160456  2.345506  1.832200
      ESP Fit Center   89 is at   0.776646  2.154392  1.832200
      ESP Fit Center   90 is at   0.776646  0.292302  1.832200
      ESP Fit Center   91 is at   2.904512  1.641698  1.571038
      ESP Fit Center   92 is at   2.728936  2.026158  1.571038
      ESP Fit Center   93 is at   2.452157  2.345578  1.571038
      ESP Fit Center   94 is at   2.096598  2.574081  1.571038
      ESP Fit Center   95 is at   1.691065  2.693157  1.571038
      ESP Fit Center   96 is at   1.268411  2.693157  1.571038
      ESP Fit Center   97 is at   0.862878  2.574081  1.571038
      ESP Fit Center   98 is at   3.175086  1.641213  1.252811
      ESP Fit Center   99 is at   3.025821  2.034794  1.252811
      ESP Fit Center  100 is at   2.786702  2.381216  1.252811
      ESP Fit Center  101 is at   2.471628  2.660348  1.252811
      ESP Fit Center  102 is at   2.098909  2.855966  1.252811
      ESP Fit Center  103 is at   1.690205  2.956702  1.252811
      ESP Fit Center  104 is at   1.269271  2.956702  1.252811
      ESP Fit Center  105 is at   0.860567  2.855966  1.252811
      ESP Fit Center  106 is at   3.374525  1.640421  0.889749
      ESP Fit Center  107 is at   3.240568  2.037993  0.889749
      ESP Fit Center  108 is at   1.584775  3.160648  0.889749
      ESP Fit Center  109 is at   1.165857  3.137935  0.889749
      ESP Fit Center  110 is at   0.761616  3.025698  0.889749
      ESP Fit Center  111 is at   3.497226  1.637951  0.495803
      ESP Fit Center  112 is at   0.963482  3.217246  0.495803
      ESP Fit Center  113 is at   2.646435  1.223347 -1.659972
      ESP Fit Center  114 is at   2.283373  1.223347 -1.854033
      ESP Fit Center  115 is at   1.077920  1.919315 -1.854033
      ESP Fit Center  116 is at   1.077920  0.527378 -1.854033
      ESP Fit Center  117 is at   1.889428  1.223347 -1.973535
      ESP Fit Center  118 is at   1.684583  1.578149 -1.973535
      ESP Fit Center  119 is at   1.274893  1.578149 -1.973535
      ESP Fit Center  120 is at   1.070048  1.223347 -1.973535
      ESP Fit Center  121 is at   1.274893  0.868545 -1.973535
      ESP Fit Center  122 is at   1.684583  0.868545 -1.973535
      ESP Fit Center  123 is at   1.479738  1.223347 -2.013886
      ESP Fit Center  124 is at  -0.617779  0.010819  2.087080
      ESP Fit Center  125 is at  -0.208090  0.010819  2.046729
      ESP Fit Center  126 is at  -0.412934  0.365621  2.046729
      ESP Fit Center  127 is at  -0.412934 -0.343982  2.046729
      ESP Fit Center  128 is at   0.185856  0.010819  1.927227
      ESP Fit Center  129 is at  -0.617779 -0.792816  1.927227
      ESP Fit Center  130 is at   0.078189 -0.390998  1.927227
      ESP Fit Center  131 is at   0.548918  0.010819  1.733166
      ESP Fit Center  132 is at   0.548918  0.010819 -1.759006
      ESP Fit Center  133 is at   0.185856  0.010819 -1.953067
      ESP Fit Center  134 is at   0.078189  0.412637 -1.953067
      ESP Fit Center  135 is at  -0.617779  0.814455 -1.953067
      ESP Fit Center  136 is at  -0.617779 -0.792816 -1.953067
      ESP Fit Center  137 is at  -0.208090  0.010819 -2.072569
      ESP Fit Center  138 is at  -0.412934  0.365621 -2.072569
      ESP Fit Center  139 is at  -0.412934 -0.343982 -2.072569
      ESP Fit Center  140 is at  -0.617779  0.010819 -2.112920
      ESP Fit Center  141 is at   2.183157  0.013546  2.177554
      ESP Fit Center  142 is at   2.592847  0.013546  2.137203
      ESP Fit Center  143 is at   2.388002  0.368347  2.137203
      ESP Fit Center  144 is at   1.978312  0.368347  2.137203
      ESP Fit Center  145 is at   1.773468  0.013546  2.137203
      ESP Fit Center  146 is at   1.978312 -0.341256  2.137203
      ESP Fit Center  147 is at   2.388002 -0.341256  2.137203
      ESP Fit Center  148 is at   2.986792  0.013546  2.017701
      ESP Fit Center  149 is at   2.879126  0.415363  2.017701
      ESP Fit Center  150 is at   2.584975  0.709514  2.017701
      ESP Fit Center  151 is at   1.379522  0.013546  2.017701
      ESP Fit Center  152 is at   1.487189 -0.388272  2.017701
      ESP Fit Center  153 is at   2.183157 -0.790090  2.017701
      ESP Fit Center  154 is at   2.584975 -0.682423  2.017701
      ESP Fit Center  155 is at   2.879126 -0.388272  2.017701
      ESP Fit Center  156 is at   3.349855  0.013546  1.823640
      ESP Fit Center  157 is at   3.271070  0.435005  1.823640
      ESP Fit Center  158 is at   3.045357  0.799545  1.823640
      ESP Fit Center  159 is at   2.703199  1.057930  1.823640
      ESP Fit Center  160 is at   1.036325 -0.200835  1.823640
      ESP Fit Center  161 is at   2.703199 -1.030839  1.823640
      ESP Fit Center  162 is at   3.045357 -0.772453  1.823640
      ESP Fit Center  163 is at   3.271070 -0.407914  1.823640
      ESP Fit Center  164 is at   3.668081  0.013546  1.562478
      ESP Fit Center  165 is at   3.607932  0.431897  1.562478
      ESP Fit Center  166 is at   3.432355  0.816356  1.562478
      ESP Fit Center  167 is at   3.155576  1.135776  1.562478
      ESP Fit Center  168 is at   3.155576 -1.108685  1.562478
      ESP Fit Center  169 is at   3.432355 -0.789265  1.562478
      ESP Fit Center  170 is at   3.607932 -0.404806  1.562478
      ESP Fit Center  171 is at   3.929243  0.013546  1.244251
      ESP Fit Center  172 is at   3.878505  0.431411  1.244251
      ESP Fit Center  173 is at   3.729240  0.824992  1.244251
      ESP Fit Center  174 is at   3.490121  1.171415  1.244251
      ESP Fit Center  175 is at   3.490121 -1.144324  1.244251
      ESP Fit Center  176 is at   3.729240 -0.797901  1.244251
      ESP Fit Center  177 is at   3.878505 -0.404320  1.244251
      ESP Fit Center  178 is at   3.943987  0.828192  0.881189
      ESP Fit Center  179 is at   3.727695  1.187673  0.881189
      ESP Fit Center  180 is at   3.439182  1.492252  0.881189
      ESP Fit Center  181 is at   3.727695 -1.160581  0.881189
      ESP Fit Center  182 is at   3.943987 -0.801101  0.881189
      ESP Fit Center  183 is at   3.873642  1.190158  0.487244
      ESP Fit Center  184 is at   3.602187  1.506364  0.487244
      ESP Fit Center  185 is at   3.668081  1.498470  0.077554
      ESP Fit Center  186 is at   2.703199  1.057930 -1.668532
      ESP Fit Center  187 is at   2.584975  0.709514 -1.862593
      ESP Fit Center  188 is at   2.183157  0.817181 -1.862593
      ESP Fit Center  189 is at   1.487189  0.415363 -1.862593
      ESP Fit Center  190 is at   1.379522  0.013546 -1.862593
      ESP Fit Center  191 is at   2.388002  0.368347 -1.982095
      ESP Fit Center  192 is at   1.978312  0.368347 -1.982095
      ESP Fit Center  193 is at   1.773468  0.013546 -1.982095
      ESP Fit Center  194 is at   1.978312 -0.341256 -1.982095
      ESP Fit Center  195 is at   2.388002 -0.341256 -1.982095
      ESP Fit Center  196 is at   2.183157  0.013546 -2.022446
      ESP Fit Center  197 is at   0.085301 -1.200290  2.083437
      ESP Fit Center  198 is at   0.494990 -1.200290  2.043086
      ESP Fit Center  199 is at   0.290146 -0.845488  2.043086
      ESP Fit Center  200 is at  -0.119544 -0.845488  2.043086
      ESP Fit Center  201 is at  -0.324389 -1.200290  2.043086
      ESP Fit Center  202 is at  -0.119544 -1.555092  2.043086
      ESP Fit Center  203 is at   0.290146 -1.555092  2.043086
      ESP Fit Center  204 is at   0.487118 -0.504322  1.923584
      ESP Fit Center  205 is at   0.085301 -0.396655  1.923584
      ESP Fit Center  206 is at  -0.718335 -1.200290  1.923584
      ESP Fit Center  207 is at  -0.610668 -1.602108  1.923584
      ESP Fit Center  208 is at  -0.316517 -1.896259  1.923584
      ESP Fit Center  209 is at   0.085301 -2.003925  1.923584
      ESP Fit Center  210 is at   0.487118 -1.896259  1.923584
      ESP Fit Center  211 is at   0.605343 -0.155905  1.729523
      ESP Fit Center  212 is at  -1.061532 -1.414670  1.729523
      ESP Fit Center  213 is at  -0.906645 -1.814477  1.729523
      ESP Fit Center  214 is at  -0.617792 -2.131335  1.729523
      ESP Fit Center  215 is at  -0.233981 -2.322450  1.729523
      ESP Fit Center  216 is at   0.192950 -2.362011  1.729523
      ESP Fit Center  217 is at   0.605343 -2.244675  1.729523
      ESP Fit Center  218 is at  -1.163897 -2.003101  1.468361
      ESP Fit Center  219 is at   0.296627 -2.670100  1.468361
      ESP Fit Center  220 is at   0.702161 -2.551025  1.468361
      ESP Fit Center  221 is at   0.704471 -2.832909  1.150134
      ESP Fit Center  222 is at   0.704471 -2.832909 -1.183261
      ESP Fit Center  223 is at   0.296627 -2.670100 -1.501487
      ESP Fit Center  224 is at   0.702161 -2.551025 -1.501487
      ESP Fit Center  225 is at   0.605343 -0.155905 -1.762649
      ESP Fit Center  226 is at  -0.906645 -1.814477 -1.762649
      ESP Fit Center  227 is at  -0.617792 -2.131335 -1.762649
      ESP Fit Center  228 is at  -0.233981 -2.322450 -1.762649
      ESP Fit Center  229 is at   0.192950 -2.362011 -1.762649
      ESP Fit Center  230 is at   0.605343 -2.244675 -1.762649
      ESP Fit Center  231 is at   0.781269 -0.798472 -1.956710
      ESP Fit Center  232 is at   0.487118 -0.504322 -1.956710
      ESP Fit Center  233 is at   0.085301 -0.396655 -1.956710
      ESP Fit Center  234 is at  -0.610668 -0.798472 -1.956710
      ESP Fit Center  235 is at  -0.718335 -1.200290 -1.956710
      ESP Fit Center  236 is at  -0.610668 -1.602108 -1.956710
      ESP Fit Center  237 is at  -0.316517 -1.896259 -1.956710
      ESP Fit Center  238 is at   0.085301 -2.003925 -1.956710
      ESP Fit Center  239 is at   0.487118 -1.896259 -1.956710
      ESP Fit Center  240 is at   0.781269 -1.602108 -1.956710
      ESP Fit Center  241 is at   0.494990 -1.200290 -2.076212
      ESP Fit Center  242 is at   0.290146 -0.845488 -2.076212
      ESP Fit Center  243 is at  -0.119544 -0.845488 -2.076212
      ESP Fit Center  244 is at  -0.324389 -1.200290 -2.076212
      ESP Fit Center  245 is at  -0.119544 -1.555092 -2.076212
      ESP Fit Center  246 is at   0.290146 -1.555092 -2.076212
      ESP Fit Center  247 is at   0.085301 -1.200290 -2.116563
      ESP Fit Center  248 is at   1.484536 -1.198926  2.127267
      ESP Fit Center  249 is at   1.894226 -1.198926  2.086916
      ESP Fit Center  250 is at   1.689381 -0.844125  2.086916
      ESP Fit Center  251 is at   1.279691 -0.844125  2.086916
      ESP Fit Center  252 is at   1.074846 -1.198926  2.086916
      ESP Fit Center  253 is at   1.279691 -1.553728  2.086916
      ESP Fit Center  254 is at   1.689381 -1.553728  2.086916
      ESP Fit Center  255 is at   2.288171 -1.198926  1.967414
      ESP Fit Center  256 is at   1.082718 -0.502958  1.967414
      ESP Fit Center  257 is at   0.788567 -0.797109  1.967414
      ESP Fit Center  258 is at   0.788567 -1.600744  1.967414
      ESP Fit Center  259 is at   1.082718 -1.894895  1.967414
      ESP Fit Center  260 is at   1.484536 -2.002562  1.967414
      ESP Fit Center  261 is at   1.886353 -1.894895  1.967414
      ESP Fit Center  262 is at   2.180504 -1.600744  1.967414
      ESP Fit Center  263 is at   2.651233 -1.198926  1.773353
      ESP Fit Center  264 is at   0.781444 -0.267882  1.773353
      ESP Fit Center  265 is at   0.781444 -2.129971  1.773353
      ESP Fit Center  266 is at   1.165254 -2.321086  1.773353
      ESP Fit Center  267 is at   1.592185 -2.360647  1.773353
      ESP Fit Center  268 is at   2.004578 -2.243311  1.773353
      ESP Fit Center  269 is at   2.346736 -1.984925  1.773353
      ESP Fit Center  270 is at   2.572449 -1.620386  1.773353
      ESP Fit Center  271 is at   0.867676 -2.549661  1.512191
      ESP Fit Center  272 is at   1.273209 -2.668736  1.512191
      ESP Fit Center  273 is at   1.695863 -2.668736  1.512191
      ESP Fit Center  274 is at   2.909310 -1.617278  1.512191
      ESP Fit Center  275 is at   0.865365 -2.831545  1.193964
      ESP Fit Center  276 is at   1.274068 -2.932282  1.193964
      ESP Fit Center  277 is at   0.766413 -3.001278  0.830902
      ESP Fit Center  278 is at   1.170655 -3.113515  0.830902
      ESP Fit Center  279 is at   0.968280 -3.192826  0.436957
      ESP Fit Center  280 is at   1.074846 -3.258576  0.027267
      ESP Fit Center  281 is at   0.968280 -3.192826 -0.382423
      ESP Fit Center  282 is at   1.170655 -3.113515 -0.776368
      ESP Fit Center  283 is at   0.865365 -2.831545 -1.139431
      ESP Fit Center  284 is at   1.274068 -2.932282 -1.139431
      ESP Fit Center  285 is at   0.867676 -2.549661 -1.457657
      ESP Fit Center  286 is at   1.273209 -2.668736 -1.457657
      ESP Fit Center  287 is at   2.651233 -1.198926 -1.718819
      ESP Fit Center  288 is at   1.165254 -2.321086 -1.718819
      ESP Fit Center  289 is at   1.592185 -2.360647 -1.718819
      ESP Fit Center  290 is at   2.004578 -2.243311 -1.718819
      ESP Fit Center  291 is at   2.572449 -1.620386 -1.718819
      ESP Fit Center  292 is at   2.288171 -1.198926 -1.912880
      ESP Fit Center  293 is at   2.180504 -0.797109 -1.912880
      ESP Fit Center  294 is at   1.484536 -0.395291 -1.912880
      ESP Fit Center  295 is at   1.082718 -0.502958 -1.912880
      ESP Fit Center  296 is at   1.082718 -1.894895 -1.912880
      ESP Fit Center  297 is at   1.484536 -2.002562 -1.912880
      ESP Fit Center  298 is at   1.886353 -1.894895 -1.912880
      ESP Fit Center  299 is at   2.180504 -1.600744 -1.912880
      ESP Fit Center  300 is at   1.894226 -1.198926 -2.032382
      ESP Fit Center  301 is at   1.689381 -0.844125 -2.032382
      ESP Fit Center  302 is at   1.279691 -0.844125 -2.032382
      ESP Fit Center  303 is at   1.074846 -1.198926 -2.032382
      ESP Fit Center  304 is at   1.279691 -1.553728 -2.032382
      ESP Fit Center  305 is at   1.689381 -1.553728 -2.032382
      ESP Fit Center  306 is at   1.484536 -1.198926 -2.072733
      ESP Fit Center  307 is at  -0.669407 -2.512414  1.567092
      ESP Fit Center  308 is at  -1.291999 -2.135852  1.399259
      ESP Fit Center  309 is at  -1.179460 -2.555852  1.399259
      ESP Fit Center  310 is at  -0.871999 -2.863313  1.399259
      ESP Fit Center  311 is at  -0.451999 -2.975852  1.399259
      ESP Fit Center  312 is at  -0.031999 -2.863313  1.399259
      ESP Fit Center  313 is at  -1.619711 -2.354135  1.132276
      ESP Fit Center  314 is at  -1.462005 -2.761222  1.132276
      ESP Fit Center  315 is at  -1.167892 -3.083848  1.132276
      ESP Fit Center  316 is at  -0.777094 -3.278443  1.132276
      ESP Fit Center  317 is at  -0.342390 -3.318724  1.132276
      ESP Fit Center  318 is at   0.077511 -3.199252  1.132276
      ESP Fit Center  319 is at   0.425899 -2.936162  1.132276
      ESP Fit Center  320 is at  -1.890671 -2.352697  0.784336
      ESP Fit Center  321 is at  -1.762839 -2.767119  0.784336
      ESP Fit Center  322 is at  -1.518533 -3.125451  0.784336
      ESP Fit Center  323 is at  -1.179460 -3.395852  0.784336
      ESP Fit Center  324 is at  -0.775750 -3.554297  0.784336
      ESP Fit Center  325 is at  -0.343272 -3.586707  0.784336
      ESP Fit Center  326 is at   0.079544 -3.490201  0.784336
      ESP Fit Center  327 is at   0.455131 -3.273356  0.784336
      ESP Fit Center  328 is at  -2.019460 -2.555852  0.379152
      ESP Fit Center  329 is at  -1.857346 -2.947230  0.379152
      ESP Fit Center  330 is at  -1.599460 -3.283313  0.379152
      ESP Fit Center  331 is at  -1.263377 -3.541200  0.379152
      ESP Fit Center  332 is at  -0.871999 -3.703313  0.379152
      ESP Fit Center  333 is at  -0.451999 -3.758608  0.379152
      ESP Fit Center  334 is at  -0.031999 -3.703313  0.379152
      ESP Fit Center  335 is at   0.359379 -3.541200  0.379152
      ESP Fit Center  336 is at   0.695462 -3.283313  0.379152
      ESP Fit Center  337 is at  -2.014023 -2.754301 -0.055664
      ESP Fit Center  338 is at  -1.811147 -3.123331 -0.055664
      ESP Fit Center  339 is at  -1.522871 -3.430314 -0.055664
      ESP Fit Center  340 is at  -1.167308 -3.655962 -0.055664
      ESP Fit Center  341 is at  -0.766799 -3.786095 -0.055664
      ESP Fit Center  342 is at  -0.346511 -3.812537 -0.055664
      ESP Fit Center  343 is at   0.067150 -3.733627 -0.055664
      ESP Fit Center  344 is at   0.448190 -3.554323 -0.055664
      ESP Fit Center  345 is at   0.772668 -3.285891 -0.055664
      ESP Fit Center  346 is at  -2.019460 -2.555852 -0.490480
      ESP Fit Center  347 is at  -1.857346 -2.947230 -0.490480
      ESP Fit Center  348 is at  -1.599460 -3.283313 -0.490480
      ESP Fit Center  349 is at  -1.263377 -3.541200 -0.490480
      ESP Fit Center  350 is at  -0.871999 -3.703313 -0.490480
      ESP Fit Center  351 is at  -0.451999 -3.758608 -0.490480
      ESP Fit Center  352 is at  -0.031999 -3.703313 -0.490480
      ESP Fit Center  353 is at   0.359379 -3.541200 -0.490480
      ESP Fit Center  354 is at   0.695462 -3.283313 -0.490480
      ESP Fit Center  355 is at  -1.890671 -2.352697 -0.895664
      ESP Fit Center  356 is at  -1.762839 -2.767119 -0.895664
      ESP Fit Center  357 is at  -1.518533 -3.125451 -0.895664
      ESP Fit Center  358 is at  -1.179460 -3.395852 -0.895664
      ESP Fit Center  359 is at  -0.775750 -3.554297 -0.895664
      ESP Fit Center  360 is at  -0.343272 -3.586707 -0.895664
      ESP Fit Center  361 is at   0.079544 -3.490201 -0.895664
      ESP Fit Center  362 is at   0.455131 -3.273356 -0.895664
      ESP Fit Center  363 is at  -1.619711 -2.354135 -1.243603
      ESP Fit Center  364 is at  -1.462005 -2.761222 -1.243603
      ESP Fit Center  365 is at  -1.167892 -3.083848 -1.243603
      ESP Fit Center  366 is at  -0.777094 -3.278443 -1.243603
      ESP Fit Center  367 is at  -0.342390 -3.318724 -1.243603
      ESP Fit Center  368 is at   0.077511 -3.199252 -1.243603
      ESP Fit Center  369 is at   0.425899 -2.936162 -1.243603
      ESP Fit Center  370 is at  -1.291999 -2.135852 -1.510586
      ESP Fit Center  371 is at  -1.179460 -2.555852 -1.510586
      ESP Fit Center  372 is at  -0.871999 -2.863313 -1.510586
      ESP Fit Center  373 is at  -0.451999 -2.975852 -1.510586
      ESP Fit Center  374 is at  -0.031999 -2.863313 -1.510586
      ESP Fit Center  375 is at  -0.886815 -2.135852 -1.678419
      ESP Fit Center  376 is at  -0.669407 -2.512414 -1.678419
      ESP Fit Center  377 is at  -0.234591 -2.512414 -1.678419
      ESP Fit Center  378 is at  -2.016631  0.010784  2.390782
      ESP Fit Center  379 is at  -1.591193  0.010784  2.353561
      ESP Fit Center  380 is at  -1.803912  0.379224  2.353561
      ESP Fit Center  381 is at  -2.229350  0.379224  2.353561
      ESP Fit Center  382 is at  -2.442069  0.010784  2.353561
      ESP Fit Center  383 is at  -1.803912 -0.357656  2.353561
      ESP Fit Center  384 is at  -1.178682  0.010784  2.243029
      ESP Fit Center  385 is at  -1.290946  0.429759  2.243029
      ESP Fit Center  386 is at  -1.597656  0.736469  2.243029
      ESP Fit Center  387 is at  -2.016631  0.848733  2.243029
      ESP Fit Center  388 is at  -2.435606  0.736469  2.243029
      ESP Fit Center  389 is at  -2.742317  0.429759  2.243029
      ESP Fit Center  390 is at  -1.597656 -0.714902  2.243029
      ESP Fit Center  391 is at  -1.290946 -0.408191  2.243029
      ESP Fit Center  392 is at  -0.865508  0.429759  2.062545
      ESP Fit Center  393 is at  -1.078227  0.798199  2.062545
      ESP Fit Center  394 is at  -1.404131  1.071665  2.062545
      ESP Fit Center  395 is at  -1.803912  1.217173  2.062545
      ESP Fit Center  396 is at  -2.229350  1.217173  2.062545
      ESP Fit Center  397 is at  -2.629131  1.071665  2.062545
      ESP Fit Center  398 is at  -2.955036  0.798199  2.062545
      ESP Fit Center  399 is at  -3.167755  0.429759  2.062545
      ESP Fit Center  400 is at  -1.404131 -1.050097  2.062545
      ESP Fit Center  401 is at  -1.078227 -0.776631  2.062545
      ESP Fit Center  402 is at  -0.865508 -0.408191  2.062545
      ESP Fit Center  403 is at  -1.292107  1.409052  1.817591
      ESP Fit Center  404 is at  -1.696223  1.552675  1.817591
      ESP Fit Center  405 is at  -2.124101  1.581942  1.817591
      ESP Fit Center  406 is at  -2.544009  1.494684  1.817591
      ESP Fit Center  407 is at  -2.924804  1.297372  1.817591
      ESP Fit Center  408 is at  -3.238244  1.004640  1.817591
      ESP Fit Center  409 is at  -3.461083  0.638198  1.817591
      ESP Fit Center  410 is at  -3.576793  0.225223  1.817591
      ESP Fit Center  411 is at  -1.292107 -1.387484  1.817591
      ESP Fit Center  412 is at  -0.941726 -1.140158  1.817591
      ESP Fit Center  413 is at  -1.599002  1.840537  1.515612
      ESP Fit Center  414 is at  -2.016631  1.887593  1.515612
      ESP Fit Center  415 is at  -2.434260  1.840537  1.515612
      ESP Fit Center  416 is at  -2.830948  1.701730  1.515612
      ESP Fit Center  417 is at  -3.186802  1.478132  1.515612
      ESP Fit Center  418 is at  -3.483979  1.180955  1.515612
      ESP Fit Center  419 is at  -3.707577  0.825101  1.515612
      ESP Fit Center  420 is at  -3.846384  0.428413  1.515612
      ESP Fit Center  421 is at  -3.893440  0.010784  1.515612
      ESP Fit Center  422 is at  -1.599002 -1.818969  1.515612
      ESP Fit Center  423 is at  -2.016631  2.132546  1.165782
      ESP Fit Center  424 is at  -2.430566  2.091777  1.165782
      ESP Fit Center  425 is at  -2.828594  1.971037  1.165782
      ESP Fit Center  426 is at  -3.195419  1.774965  1.165782
      ESP Fit Center  427 is at  -3.516944  1.511096  1.165782
      ESP Fit Center  428 is at  -3.780812  1.189572  1.165782
      ESP Fit Center  429 is at  -3.976884  0.822747  1.165782
      ESP Fit Center  430 is at  -4.097624  0.424719  1.165782
      ESP Fit Center  431 is at  -4.138393  0.010784  1.165782
      ESP Fit Center  432 is at  -4.097624 -0.403151  1.165782
      ESP Fit Center  433 is at  -3.976884 -0.801179  1.165782
      ESP Fit Center  434 is at  -2.016631 -2.110978  1.165782
      ESP Fit Center  435 is at  -2.229056  2.303210  0.778732
      ESP Fit Center  436 is at  -2.646671  2.225144  0.778732
      ESP Fit Center  437 is at  -3.042831  2.071671  0.778732
      ESP Fit Center  438 is at  -3.404045  1.848017  0.778732
      ESP Fit Center  439 is at  -3.718012  1.561798  0.778732
      ESP Fit Center  440 is at  -3.974041  1.222761  0.778732
      ESP Fit Center  441 is at  -4.163412  0.842451  0.778732
      ESP Fit Center  442 is at  -4.279678  0.433821  0.778732
      ESP Fit Center  443 is at  -4.318878  0.010784  0.778732
      ESP Fit Center  444 is at  -4.279678 -0.412253  0.778732
      ESP Fit Center  445 is at  -4.163412 -0.820884  0.778732
      ESP Fit Center  446 is at  -3.974041 -1.201193  0.778732
      ESP Fit Center  447 is at  -3.718012 -1.540230  0.778732
      ESP Fit Center  448 is at  -3.404045 -1.826449  0.778732
      ESP Fit Center  449 is at  -3.042831 -2.050103  0.778732
      ESP Fit Center  450 is at  -2.646671 -2.203576  0.778732
      ESP Fit Center  451 is at  -2.229056 -2.281642  0.778732
      ESP Fit Center  452 is at  -2.435606  2.386907  0.366220
      ESP Fit Center  453 is at  -2.841850  2.278055  0.366220
      ESP Fit Center  454 is at  -3.223021  2.100312  0.366220
      ESP Fit Center  455 is at  -3.567536  1.859080  0.366220
      ESP Fit Center  456 is at  -3.864927  1.561688  0.366220
      ESP Fit Center  457 is at  -4.106159  1.217173  0.366220
      ESP Fit Center  458 is at  -4.283902  0.836003  0.366220
      ESP Fit Center  459 is at  -4.392755  0.429759  0.366220
      ESP Fit Center  460 is at  -4.429410  0.010784  0.366220
      ESP Fit Center  461 is at  -4.392755 -0.408191  0.366220
      ESP Fit Center  462 is at  -4.283902 -0.814435  0.366220
      ESP Fit Center  463 is at  -4.106159 -1.195606  0.366220
      ESP Fit Center  464 is at  -3.864927 -1.540121  0.366220
      ESP Fit Center  465 is at  -3.567536 -1.837512  0.366220
      ESP Fit Center  466 is at  -3.223021 -2.078744  0.366220
      ESP Fit Center  467 is at  -2.841850 -2.256487  0.366220
      ESP Fit Center  468 is at  -2.435606 -2.365340  0.366220
      ESP Fit Center  469 is at  -2.327825  2.440940 -0.059218
      ESP Fit Center  470 is at  -2.734047  2.353392 -0.059218
      ESP Fit Center  471 is at  -3.119630  2.198452 -0.059218
      ESP Fit Center  472 is at  -3.473482  1.980577 -0.059218
      ESP Fit Center  473 is at  -3.785424  1.706034 -0.059218
      ESP Fit Center  474 is at  -4.046480  1.382722 -0.059218
      ESP Fit Center  475 is at  -4.249141  1.019942 -0.059218
      ESP Fit Center  476 is at  -4.387577  0.628130 -0.059218
      ESP Fit Center  477 is at  -4.457805  0.218558 -0.059218
      ESP Fit Center  478 is at  -4.457805 -0.196991 -0.059218
      ESP Fit Center  479 is at  -4.387577 -0.606562 -0.059218
      ESP Fit Center  480 is at  -4.249141 -0.998374 -0.059218
      ESP Fit Center  481 is at  -4.046480 -1.361154 -0.059218
      ESP Fit Center  482 is at  -3.785424 -1.684466 -0.059218
      ESP Fit Center  483 is at  -3.473482 -1.959009 -0.059218
      ESP Fit Center  484 is at  -3.119630 -2.176884 -0.059218
      ESP Fit Center  485 is at  -2.734047 -2.331825 -0.059218
      ESP Fit Center  486 is at  -2.327825 -2.419372 -0.059218
      ESP Fit Center  487 is at  -2.435606  2.386907 -0.484656
      ESP Fit Center  488 is at  -2.841850  2.278055 -0.484656
      ESP Fit Center  489 is at  -3.223021  2.100312 -0.484656
      ESP Fit Center  490 is at  -3.567536  1.859080 -0.484656
      ESP Fit Center  491 is at  -3.864927  1.561688 -0.484656
      ESP Fit Center  492 is at  -4.106159  1.217173 -0.484656
      ESP Fit Center  493 is at  -4.283902  0.836003 -0.484656
      ESP Fit Center  494 is at  -4.392755  0.429759 -0.484656
      ESP Fit Center  495 is at  -4.429410  0.010784 -0.484656
      ESP Fit Center  496 is at  -4.392755 -0.408191 -0.484656
      ESP Fit Center  497 is at  -4.283902 -0.814435 -0.484656
      ESP Fit Center  498 is at  -4.106159 -1.195606 -0.484656
      ESP Fit Center  499 is at  -3.864927 -1.540121 -0.484656
      ESP Fit Center  500 is at  -3.567536 -1.837512 -0.484656
      ESP Fit Center  501 is at  -3.223021 -2.078744 -0.484656
      ESP Fit Center  502 is at  -2.841850 -2.256487 -0.484656
      ESP Fit Center  503 is at  -2.435606 -2.365340 -0.484656
      ESP Fit Center  504 is at  -2.229056  2.303210 -0.897167
      ESP Fit Center  505 is at  -2.646671  2.225144 -0.897167
      ESP Fit Center  506 is at  -3.042831  2.071671 -0.897167
      ESP Fit Center  507 is at  -3.404045  1.848017 -0.897167
      ESP Fit Center  508 is at  -3.718012  1.561798 -0.897167
      ESP Fit Center  509 is at  -3.974041  1.222761 -0.897167
      ESP Fit Center  510 is at  -4.163412  0.842451 -0.897167
      ESP Fit Center  511 is at  -4.279678  0.433821 -0.897167
      ESP Fit Center  512 is at  -4.318878  0.010784 -0.897167
      ESP Fit Center  513 is at  -4.279678 -0.412253 -0.897167
      ESP Fit Center  514 is at  -4.163412 -0.820884 -0.897167
      ESP Fit Center  515 is at  -3.974041 -1.201193 -0.897167
      ESP Fit Center  516 is at  -3.718012 -1.540230 -0.897167
      ESP Fit Center  517 is at  -3.404045 -1.826449 -0.897167
      ESP Fit Center  518 is at  -3.042831 -2.050103 -0.897167
      ESP Fit Center  519 is at  -2.646671 -2.203576 -0.897167
      ESP Fit Center  520 is at  -2.229056 -2.281642 -0.897167
      ESP Fit Center  521 is at  -2.016631  2.132546 -1.284218
      ESP Fit Center  522 is at  -2.430566  2.091777 -1.284218
      ESP Fit Center  523 is at  -2.828594  1.971037 -1.284218
      ESP Fit Center  524 is at  -3.195419  1.774965 -1.284218
      ESP Fit Center  525 is at  -3.516944  1.511096 -1.284218
      ESP Fit Center  526 is at  -3.780812  1.189572 -1.284218
      ESP Fit Center  527 is at  -3.976884  0.822747 -1.284218
      ESP Fit Center  528 is at  -4.097624  0.424719 -1.284218
      ESP Fit Center  529 is at  -4.138393  0.010784 -1.284218
      ESP Fit Center  530 is at  -4.097624 -0.403151 -1.284218
      ESP Fit Center  531 is at  -3.976884 -0.801179 -1.284218
      ESP Fit Center  532 is at  -3.780812 -1.168004 -1.284218
      ESP Fit Center  533 is at  -3.516944 -1.489529 -1.284218
      ESP Fit Center  534 is at  -3.195419 -1.753397 -1.284218
      ESP Fit Center  535 is at  -2.828594 -1.949469 -1.284218
      ESP Fit Center  536 is at  -2.430566 -2.070209 -1.284218
      ESP Fit Center  537 is at  -2.016631 -2.110978 -1.284218
      ESP Fit Center  538 is at  -1.602696 -2.070209 -1.284218
      ESP Fit Center  539 is at  -1.202314  1.701730 -1.634047
      ESP Fit Center  540 is at  -1.599002  1.840537 -1.634047
      ESP Fit Center  541 is at  -2.016631  1.887593 -1.634047
      ESP Fit Center  542 is at  -2.434260  1.840537 -1.634047
      ESP Fit Center  543 is at  -2.830948  1.701730 -1.634047
      ESP Fit Center  544 is at  -3.186802  1.478132 -1.634047
      ESP Fit Center  545 is at  -3.483979  1.180955 -1.634047
      ESP Fit Center  546 is at  -3.707577  0.825101 -1.634047
      ESP Fit Center  547 is at  -3.846384  0.428413 -1.634047
      ESP Fit Center  548 is at  -3.893440  0.010784 -1.634047
      ESP Fit Center  549 is at  -3.846384 -0.406845 -1.634047
      ESP Fit Center  550 is at  -3.707577 -0.803533 -1.634047
      ESP Fit Center  551 is at  -3.483979 -1.159387 -1.634047
      ESP Fit Center  552 is at  -3.186802 -1.456564 -1.634047
      ESP Fit Center  553 is at  -2.830948 -1.680162 -1.634047
      ESP Fit Center  554 is at  -2.434260 -1.818969 -1.634047
      ESP Fit Center  555 is at  -2.016631 -1.866025 -1.634047
      ESP Fit Center  556 is at  -1.599002 -1.818969 -1.634047
      ESP Fit Center  557 is at  -1.202314 -1.680162 -1.634047
      ESP Fit Center  558 is at  -0.941726  1.161726 -1.936026
      ESP Fit Center  559 is at  -1.292107  1.409052 -1.936026
      ESP Fit Center  560 is at  -1.696223  1.552675 -1.936026
      ESP Fit Center  561 is at  -2.124101  1.581942 -1.936026
      ESP Fit Center  562 is at  -2.544009  1.494684 -1.936026
      ESP Fit Center  563 is at  -2.924804  1.297372 -1.936026
      ESP Fit Center  564 is at  -3.238244  1.004640 -1.936026
      ESP Fit Center  565 is at  -3.461083  0.638198 -1.936026
      ESP Fit Center  566 is at  -3.576793  0.225223 -1.936026
      ESP Fit Center  567 is at  -3.576793 -0.203655 -1.936026
      ESP Fit Center  568 is at  -3.461083 -0.616630 -1.936026
      ESP Fit Center  569 is at  -3.238244 -0.983072 -1.936026
      ESP Fit Center  570 is at  -2.924804 -1.275805 -1.936026
      ESP Fit Center  571 is at  -2.544009 -1.473117 -1.936026
      ESP Fit Center  572 is at  -2.124101 -1.560374 -1.936026
      ESP Fit Center  573 is at  -1.696223 -1.531107 -1.936026
      ESP Fit Center  574 is at  -1.292107 -1.387484 -1.936026
      ESP Fit Center  575 is at  -0.941726 -1.140158 -1.936026
      ESP Fit Center  576 is at  -0.791631  0.010784 -2.180980
      ESP Fit Center  577 is at  -0.865508  0.429759 -2.180980
      ESP Fit Center  578 is at  -1.078227  0.798199 -2.180980
      ESP Fit Center  579 is at  -1.404131  1.071665 -2.180980
      ESP Fit Center  580 is at  -1.803912  1.217173 -2.180980
      ESP Fit Center  581 is at  -2.229350  1.217173 -2.180980
      ESP Fit Center  582 is at  -2.629131  1.071665 -2.180980
      ESP Fit Center  583 is at  -2.955036  0.798199 -2.180980
      ESP Fit Center  584 is at  -3.167755  0.429759 -2.180980
      ESP Fit Center  585 is at  -3.241631  0.010784 -2.180980
      ESP Fit Center  586 is at  -3.167755 -0.408191 -2.180980
      ESP Fit Center  587 is at  -2.955036 -0.776631 -2.180980
      ESP Fit Center  588 is at  -2.629131 -1.050097 -2.180980
      ESP Fit Center  589 is at  -2.229350 -1.195606 -2.180980
      ESP Fit Center  590 is at  -1.803912 -1.195606 -2.180980
      ESP Fit Center  591 is at  -1.404131 -1.050097 -2.180980
      ESP Fit Center  592 is at  -1.078227 -0.776631 -2.180980
      ESP Fit Center  593 is at  -0.865508 -0.408191 -2.180980
      ESP Fit Center  594 is at  -1.178682  0.010784 -2.361464
      ESP Fit Center  595 is at  -1.290946  0.429759 -2.361464
      ESP Fit Center  596 is at  -1.597656  0.736469 -2.361464
      ESP Fit Center  597 is at  -2.016631  0.848733 -2.361464
      ESP Fit Center  598 is at  -2.435606  0.736469 -2.361464
      ESP Fit Center  599 is at  -2.742317  0.429759 -2.361464
      ESP Fit Center  600 is at  -2.854580  0.010784 -2.361464
      ESP Fit Center  601 is at  -2.742317 -0.408191 -2.361464
      ESP Fit Center  602 is at  -2.435606 -0.714902 -2.361464
      ESP Fit Center  603 is at  -2.016631 -0.827165 -2.361464
      ESP Fit Center  604 is at  -1.597656 -0.714902 -2.361464
      ESP Fit Center  605 is at  -1.290946 -0.408191 -2.361464
      ESP Fit Center  606 is at  -1.591193  0.010784 -2.471997
      ESP Fit Center  607 is at  -1.803912  0.379224 -2.471997
      ESP Fit Center  608 is at  -2.229350  0.379224 -2.471997
      ESP Fit Center  609 is at  -2.442069  0.010784 -2.471997
      ESP Fit Center  610 is at  -2.229350 -0.357656 -2.471997
      ESP Fit Center  611 is at  -1.803912 -0.357656 -2.471997
      ESP Fit Center  612 is at  -2.016631  0.010784 -2.509218
      ESP Fit Center  613 is at  -2.377021 -0.478256  2.414402
      ESP Fit Center  614 is at  -1.942205 -0.478256  2.357157
      ESP Fit Center  615 is at  -2.594429 -0.101695  2.357157
      ESP Fit Center  616 is at  -2.811837 -0.478256  2.357157
      ESP Fit Center  617 is at  -2.594429 -0.854818  2.357157
      ESP Fit Center  618 is at  -2.159613 -0.854818  2.357157
      ESP Fit Center  619 is at  -3.104482 -0.058256  2.189324
      ESP Fit Center  620 is at  -3.217021 -0.478256  2.189324
      ESP Fit Center  621 is at  -3.104482 -0.898256  2.189324
      ESP Fit Center  622 is at  -2.797021 -1.205718  2.189324
      ESP Fit Center  623 is at  -2.377021 -1.318256  2.189324
      ESP Fit Center  624 is at  -1.957021 -1.205718  2.189324
      ESP Fit Center  625 is at  -1.649560 -0.898256  2.189324
      ESP Fit Center  626 is at  -3.544734 -0.259973  1.922341
      ESP Fit Center  627 is at  -3.544734 -0.696540  1.922341
      ESP Fit Center  628 is at  -3.387028 -1.103626  1.922341
      ESP Fit Center  629 is at  -3.092915 -1.426252  1.922341
      ESP Fit Center  630 is at  -2.702116 -1.620847  1.922341
      ESP Fit Center  631 is at  -2.267412 -1.661128  1.922341
      ESP Fit Center  632 is at  -1.847511 -1.541656  1.922341
      ESP Fit Center  633 is at  -3.815694 -0.695101  1.574402
      ESP Fit Center  634 is at  -3.687861 -1.109524  1.574402
      ESP Fit Center  635 is at  -3.443555 -1.467855  1.574402
      ESP Fit Center  636 is at  -3.104482 -1.738256  1.574402
      ESP Fit Center  637 is at  -2.700772 -1.896701  1.574402
      ESP Fit Center  638 is at  -2.268295 -1.929111  1.574402
      ESP Fit Center  639 is at  -1.845478 -1.832606  1.574402
      ESP Fit Center  640 is at  -3.944482 -0.898256  1.169218
      ESP Fit Center  641 is at  -3.782369 -1.289634  1.169218
      ESP Fit Center  642 is at  -3.524482 -1.625718  1.169218
      ESP Fit Center  643 is at  -3.188399 -1.883604  1.169218
      ESP Fit Center  644 is at  -2.797021 -2.045718  1.169218
      ESP Fit Center  645 is at  -2.377021 -2.101012  1.169218
      ESP Fit Center  646 is at   3.102830  2.433182  0.877076
      ESP Fit Center  647 is at   2.873007  2.804358  0.877076
      ESP Fit Center  648 is at   2.524620  3.067449  0.877076
      ESP Fit Center  649 is at   2.104719  3.186921  0.877076
      ESP Fit Center  650 is at   3.450032  2.004049  0.529137
      ESP Fit Center  651 is at   3.385394  2.432895  0.529137
      ESP Fit Center  652 is at   3.197223  2.823636  0.529137
      ESP Fit Center  653 is at   2.902239  3.141553  0.529137
      ESP Fit Center  654 is at   2.526652  3.358398  0.529137
      ESP Fit Center  655 is at   2.103836  3.454903  0.529137
      ESP Fit Center  656 is at   1.671359  3.422494  0.529137
      ESP Fit Center  657 is at   3.617865  2.004049  0.123953
      ESP Fit Center  658 is at   3.562571  2.424049  0.123953
      ESP Fit Center  659 is at   3.400457  2.815427  0.123953
      ESP Fit Center  660 is at   3.142571  3.151510  0.123953
      ESP Fit Center  661 is at   2.806487  3.409396  0.123953
      ESP Fit Center  662 is at   2.415109  3.571510  0.123953
      ESP Fit Center  663 is at   1.995109  3.626804  0.123953
      ESP Fit Center  664 is at   1.575109  3.571510  0.123953
      ESP Fit Center  665 is at   1.183732  3.409396  0.123953
      ESP Fit Center  666 is at   3.675109  2.004049 -0.310863
      ESP Fit Center  667 is at   3.622329  2.421848 -0.310863
      ESP Fit Center  668 is at   3.467305  2.813395 -0.310863
      ESP Fit Center  669 is at   3.219777  3.154088 -0.310863
      ESP Fit Center  670 is at   2.895298  3.422520 -0.310863
      ESP Fit Center  671 is at   2.514258  3.601824 -0.310863
      ESP Fit Center  672 is at   2.100598  3.680734 -0.310863
      ESP Fit Center  673 is at   1.680309  3.654291 -0.310863
      ESP Fit Center  674 is at   1.279800  3.524158 -0.310863
      ESP Fit Center  675 is at   0.924237  3.298511 -0.310863
      ESP Fit Center  676 is at   3.622329  1.586250 -0.310863
      ESP Fit Center  677 is at   3.617865  2.004049 -0.745679
      ESP Fit Center  678 is at   3.562571  2.424049 -0.745679
      ESP Fit Center  679 is at   3.400457  2.815427 -0.745679
      ESP Fit Center  680 is at   3.142571  3.151510 -0.745679
      ESP Fit Center  681 is at   2.806487  3.409396 -0.745679
      ESP Fit Center  682 is at   2.415109  3.571510 -0.745679
      ESP Fit Center  683 is at   1.995109  3.626804 -0.745679
      ESP Fit Center  684 is at   1.575109  3.571510 -0.745679
      ESP Fit Center  685 is at   1.183732  3.409396 -0.745679
      ESP Fit Center  686 is at   0.847648  3.151510 -0.745679
      ESP Fit Center  687 is at   3.562571  1.584049 -0.745679
      ESP Fit Center  688 is at   3.450032  2.004049 -1.150863
      ESP Fit Center  689 is at   3.385394  2.432895 -1.150863
      ESP Fit Center  690 is at   3.197223  2.823636 -1.150863
      ESP Fit Center  691 is at   2.902239  3.141553 -1.150863
      ESP Fit Center  692 is at   2.526652  3.358398 -1.150863
      ESP Fit Center  693 is at   2.103836  3.454903 -1.150863
      ESP Fit Center  694 is at   1.671359  3.422494 -1.150863
      ESP Fit Center  695 is at   1.267648  3.264049 -1.150863
      ESP Fit Center  696 is at   0.928576  2.993648 -1.150863
      ESP Fit Center  697 is at   3.385394  1.575203 -1.150863
      ESP Fit Center  698 is at   3.183049  2.004049 -1.498803
      ESP Fit Center  699 is at   3.102830  2.433182 -1.498803
      ESP Fit Center  700 is at   2.873007  2.804358 -1.498803
      ESP Fit Center  701 is at   2.524620  3.067449 -1.498803
      ESP Fit Center  702 is at   2.104719  3.186921 -1.498803
      ESP Fit Center  703 is at   1.670014  3.146639 -1.498803
      ESP Fit Center  704 is at   1.279216  2.952045 -1.498803
      ESP Fit Center  705 is at   0.985103  2.629418 -1.498803
      ESP Fit Center  706 is at   3.102830  1.574916 -1.498803
      ESP Fit Center  707 is at   2.835109  2.004049 -1.765786
      ESP Fit Center  708 is at   2.722571  2.424049 -1.765786
      ESP Fit Center  709 is at   2.415109  2.731510 -1.765786
      ESP Fit Center  710 is at   1.995109  2.844049 -1.765786
      ESP Fit Center  711 is at   1.575109  2.731510 -1.765786
      ESP Fit Center  712 is at   1.267648  2.424049 -1.765786
      ESP Fit Center  713 is at   2.722571  1.584049 -1.765786
      ESP Fit Center  714 is at   2.429925  2.004049 -1.933619
      ESP Fit Center  715 is at   2.212517  2.380611 -1.933619
      ESP Fit Center  716 is at   1.777701  2.380611 -1.933619
      ESP Fit Center  717 is at   1.560293  2.004049 -1.933619
      ESP Fit Center  718 is at   2.212517  1.627487 -1.933619
      ESP Fit Center  719 is at   1.995109  2.004049 -1.990863
      ESP Fit Center  720 is at   4.403648 -0.048426  0.714148
      ESP Fit Center  721 is at   4.323430  0.380708  0.714148
      ESP Fit Center  722 is at   4.093607  0.751884  0.714148
      ESP Fit Center  723 is at   4.093607 -0.848735  0.714148
      ESP Fit Center  724 is at   4.323430 -0.477559  0.714148
      ESP Fit Center  725 is at   4.670632 -0.048426  0.366209
      ESP Fit Center  726 is at   4.605994  0.380420  0.366209
      ESP Fit Center  727 is at   4.417823  0.771162  0.366209
      ESP Fit Center  728 is at   4.122839  1.089079  0.366209
      ESP Fit Center  729 is at   4.122839 -1.185930  0.366209
      ESP Fit Center  730 is at   4.417823 -0.868013  0.366209
      ESP Fit Center  731 is at   4.605994 -0.477272  0.366209
      ESP Fit Center  732 is at   4.838464 -0.048426 -0.038975
      ESP Fit Center  733 is at   4.783170  0.371574 -0.038975
      ESP Fit Center  734 is at   4.621056  0.762952 -0.038975
      ESP Fit Center  735 is at   4.363170  1.099036 -0.038975
      ESP Fit Center  736 is at   4.027087  1.356922 -0.038975
      ESP Fit Center  737 is at   4.027087 -1.453773 -0.038975
      ESP Fit Center  738 is at   4.363170 -1.195887 -0.038975
      ESP Fit Center  739 is at   4.621056 -0.859803 -0.038975
      ESP Fit Center  740 is at   4.783170 -0.468426 -0.038975
      ESP Fit Center  741 is at   4.895709 -0.048426 -0.473791
      ESP Fit Center  742 is at   4.842929  0.369373 -0.473791
      ESP Fit Center  743 is at   4.687904  0.760921 -0.473791
      ESP Fit Center  744 is at   4.440376  1.101614 -0.473791
      ESP Fit Center  745 is at   4.115898  1.370045 -0.473791
      ESP Fit Center  746 is at   3.734858  1.549349 -0.473791
      ESP Fit Center  747 is at   4.115898 -1.466896 -0.473791
      ESP Fit Center  748 is at   4.440376 -1.198465 -0.473791
      ESP Fit Center  749 is at   4.687904 -0.857772 -0.473791
      ESP Fit Center  750 is at   4.842929 -0.466225 -0.473791
      ESP Fit Center  751 is at   4.838464 -0.048426 -0.908607
      ESP Fit Center  752 is at   4.783170  0.371574 -0.908607
      ESP Fit Center  753 is at   4.621056  0.762952 -0.908607
      ESP Fit Center  754 is at   4.363170  1.099036 -0.908607
      ESP Fit Center  755 is at   4.027087  1.356922 -0.908607
      ESP Fit Center  756 is at   3.635709  1.519036 -0.908607
      ESP Fit Center  757 is at   4.027087 -1.453773 -0.908607
      ESP Fit Center  758 is at   4.363170 -1.195887 -0.908607
      ESP Fit Center  759 is at   4.621056 -0.859803 -0.908607
      ESP Fit Center  760 is at   4.783170 -0.468426 -0.908607
      ESP Fit Center  761 is at   4.670632 -0.048426 -1.313791
      ESP Fit Center  762 is at   4.605994  0.380420 -1.313791
      ESP Fit Center  763 is at   4.417823  0.771162 -1.313791
      ESP Fit Center  764 is at   4.122839  1.089079 -1.313791
      ESP Fit Center  765 is at   3.747252  1.305924 -1.313791
      ESP Fit Center  766 is at   3.324436  1.402429 -1.313791
      ESP Fit Center  767 is at   3.324436 -1.499280 -1.313791
      ESP Fit Center  768 is at   3.747252 -1.402775 -1.313791
      ESP Fit Center  769 is at   4.122839 -1.185930 -1.313791
[...]
 4232 Fit      -0.007273
 4233 Fit      -0.009587
 4234 Fit      -0.011100
 4235 Fit      -0.011948
 4236 Fit      -0.012251
 4237 Fit      -0.012124
 4238 Fit      -0.011680
 4239 Fit      -0.011033
 4240 Fit      -0.010291
 4241 Fit      -0.009557
 4242 Fit      -0.008920
 4243 Fit      -0.008453
 4244 Fit      -0.008206
 4245 Fit      -0.008206
 4246 Fit      -0.008452
 4247 Fit      -0.008918
 4248 Fit      -0.009554
 4249 Fit      -0.010287
 4250 Fit      -0.011028
 4251 Fit      -0.011676
 4252 Fit      -0.012120
 4253 Fit      -0.012247
 4254 Fit      -0.011944
 4255 Fit      -0.011097
 4256 Fit      -0.009585
 4257 Fit      -0.007271
 4258 Fit      -0.007334
 4259 Fit      -0.009688
 4260 Fit      -0.011359
 4261 Fit      -0.012406
 4262 Fit      -0.012910
 4263 Fit      -0.012968
 4264 Fit      -0.012681
 4265 Fit      -0.012161
 4266 Fit      -0.011518
 4267 Fit      -0.010856
 4268 Fit      -0.010268
 4269 Fit      -0.009831
 4270 Fit      -0.009598
 4271 Fit      -0.009598
 4272 Fit      -0.009830
 4273 Fit      -0.010267
 4274 Fit      -0.010854
 4275 Fit      -0.011516
 4276 Fit      -0.012160
 4277 Fit      -0.012680
 4278 Fit      -0.012966
 4279 Fit      -0.012909
 4280 Fit      -0.012405
 4281 Fit      -0.011359
 4282 Fit      -0.009689
 4283 Fit      -0.007336
 4284 Fit      -0.008173
 4285 Fit      -0.010221
 4286 Fit      -0.011779
 4287 Fit      -0.012810
 4288 Fit      -0.013345
 4289 Fit      -0.013455
 4290 Fit      -0.013234
 4291 Fit      -0.012789
 4292 Fit      -0.012232
 4293 Fit      -0.011669
 4294 Fit      -0.011193
 4295 Fit      -0.010876
 4296 Fit      -0.010766
 4297 Fit      -0.010876
 4298 Fit      -0.011193
 4299 Fit      -0.011669
 4300 Fit      -0.012232
 4301 Fit      -0.012789
 4302 Fit      -0.013235
 4303 Fit      -0.013456
 4304 Fit      -0.013347
 4305 Fit      -0.012812
 4306 Fit      -0.011782
 4307 Fit      -0.010225
 4308 Fit      -0.008178
 4309 Fit      -0.007285
 4310 Fit      -0.008961
 4311 Fit      -0.010623
 4312 Fit      -0.012000
 4313 Fit      -0.012974
 4314 Fit      -0.013522
 4315 Fit      -0.013684
 4316 Fit      -0.013539
 4317 Fit      -0.013188
 4318 Fit      -0.012738
 4319 Fit      -0.012294
 4320 Fit      -0.011943
 4321 Fit      -0.011751
 4322 Fit      -0.011752
 4323 Fit      -0.011944
 4324 Fit      -0.012295
 4325 Fit      -0.012739
 4326 Fit      -0.013190
 4327 Fit      -0.013542
 4328 Fit      -0.013687
 4329 Fit      -0.013526
 4330 Fit      -0.012979
 4331 Fit      -0.012006
 4332 Fit      -0.010629
 4333 Fit      -0.008968
 4334 Fit      -0.007294
 4335 Fit      -0.008707
 4336 Fit      -0.009893
 4337 Fit      -0.011192
 4338 Fit      -0.012321
 4339 Fit      -0.013129
 4340 Fit      -0.013573
 4341 Fit      -0.013684
 4342 Fit      -0.013539
 4343 Fit      -0.013241
 4344 Fit      -0.012898
 4345 Fit      -0.012608
 4346 Fit      -0.012444
 4347 Fit      -0.012444
 4348 Fit      -0.012609
 4349 Fit      -0.012900
 4350 Fit      -0.013244
 4351 Fit      -0.013543
 4352 Fit      -0.013689
 4353 Fit      -0.013579
 4354 Fit      -0.013136
 4355 Fit      -0.012328
 4356 Fit      -0.011201
 4357 Fit      -0.009902
 4358 Fit      -0.008717
 4359 Fit      -0.009248
 4360 Fit      -0.009605
 4361 Fit      -0.010456
 4362 Fit      -0.011474
 4363 Fit      -0.012395
 4364 Fit      -0.013063
 4365 Fit      -0.013426
 4366 Fit      -0.013512
 4367 Fit      -0.013399
 4368 Fit      -0.013187
 4369 Fit      -0.012979
 4370 Fit      -0.012854
 4371 Fit      -0.012854
 4372 Fit      -0.012981
 4373 Fit      -0.013190
 4374 Fit      -0.013402
 4375 Fit      -0.013517
 4376 Fit      -0.013433
 4377 Fit      -0.013070
 4378 Fit      -0.012403
 4379 Fit      -0.011483
 4380 Fit      -0.010465
 4381 Fit      -0.009615
 4382 Fit      -0.009258
 4383 Fit      -0.011828
 4384 Fit      -0.010885
 4385 Fit      -0.010126
 4386 Fit      -0.009875
 4387 Fit      -0.010193
 4388 Fit      -0.010904
 4389 Fit      -0.011740
 4390 Fit      -0.012469
 4391 Fit      -0.012961
 4392 Fit      -0.013191
 4393 Fit      -0.013212
 4394 Fit      -0.013120
 4395 Fit      -0.013015
 4396 Fit      -0.012972
 4397 Fit      -0.013017
 4398 Fit      -0.013123
 4399 Fit      -0.013216
 4400 Fit      -0.013196
 4401 Fit      -0.012968
 4402 Fit      -0.012477
 4403 Fit      -0.011749
 4404 Fit      -0.010913
 4405 Fit      -0.010202
 4406 Fit      -0.009884
 4407 Fit      -0.010134
 4408 Fit      -0.010891
 4409 Fit      -0.011832
 4410 Fit      -0.011176
 4411 Fit      -0.010997
 4412 Fit      -0.010571
 4413 Fit      -0.010193
 4414 Fit      -0.010166
 4415 Fit      -0.010574
 4416 Fit      -0.011260
 4417 Fit      -0.011965
 4418 Fit      -0.012495
 4419 Fit      -0.012782
 4420 Fit      -0.012870
 4421 Fit      -0.012860
 4422 Fit      -0.012845
 4423 Fit      -0.012862
 4424 Fit      -0.012873
 4425 Fit      -0.012787
 4426 Fit      -0.012502
 4427 Fit      -0.011973
 4428 Fit      -0.011268
 4429 Fit      -0.010583
 4430 Fit      -0.010174
 4431 Fit      -0.010200
 4432 Fit      -0.010576
 4433 Fit      -0.010999
 4434 Fit      -0.010337
 4435 Fit      -0.010258
 4436 Fit      -0.010159
 4437 Fit      -0.010303
 4438 Fit      -0.010788
 4439 Fit      -0.011439
 4440 Fit      -0.011998
 4441 Fit      -0.012331
 4442 Fit      -0.012466
 4443 Fit      -0.012495
 4444 Fit      -0.012468
 4445 Fit      -0.012335
 4446 Fit      -0.012003
 4447 Fit      -0.011445
 4448 Fit      -0.010795
 4449 Fit      -0.010310
 4450 Fit      -0.010163
 4451 Fit      -0.010261
 4452 Fit      -0.010110
 4453 Fit      -0.010151
 4454 Fit      -0.010406
 4455 Fit      -0.010946
 4456 Fit      -0.011520
 4457 Fit      -0.011874
 4458 Fit      -0.011979
 4459 Fit      -0.011876
 4460 Fit      -0.011524
 4461 Fit      -0.010950
 4462 Fit      -0.010410
 4463 Fit      -0.010154
 4464 Fit      -0.010311
 4465 Fit      -0.010551
 4466 Fit      -0.011105
 4467 Fit      -0.011375
 4468 Fit      -0.011107
 4469 Fit      -0.010553
 4470 Fit      -0.010779
 4471 Fit       0.007182
 4472 Fit       0.006525
 4473 Fit       0.006814
 4474 Fit       0.007322
 4475 Fit       0.007571
 4476 Fit       0.007325
 4477 Fit       0.006817
 4478 Fit       0.005528
 4479 Fit       0.005747
 4480 Fit       0.006237
 4481 Fit       0.006752
 4482 Fit       0.007220
 4483 Fit       0.007591
 4484 Fit       0.007740
 4485 Fit       0.007594
 4486 Fit       0.007225
 4487 Fit       0.006758
 4488 Fit       0.006242
 4489 Fit       0.005750
 4490 Fit       0.004072
 4491 Fit       0.004301
 4492 Fit       0.004857
 4493 Fit       0.005469
 4494 Fit       0.005979
 4495 Fit       0.006416
 4496 Fit       0.006850
 4497 Fit       0.007274
 4498 Fit       0.007596
 4499 Fit       0.007719
 4500 Fit       0.007599
 4501 Fit       0.007279
 4502 Fit       0.006857
 4503 Fit       0.006424
 4504 Fit       0.005988
 4505 Fit       0.005477
 4506 Fit       0.004864
 4507 Fit       0.004304
 4508 Fit       0.005485
 4509 Fit       0.005873
 4510 Fit       0.006338
 4511 Fit       0.006833
 4512 Fit       0.007253
 4513 Fit       0.007495
 4514 Fit       0.007496
 4515 Fit       0.007257
 4516 Fit       0.006839
 4517 Fit       0.006347
 4518 Fit       0.005884
 4519 Fit       0.005497
 4520 Fit       0.006362
 4521 Fit       0.006862
 4522 Fit       0.007142
 4523 Fit       0.007143
 4524 Fit       0.006866
 4525 Fit       0.006368
 4526 Fit       0.004729
 4527 Fit       0.004794
 4528 Fit       0.004497
 4529 Fit       0.005993
 4530 Fit       0.006312
 4531 Fit       0.006433
 4532 Fit       0.006371
 4533 Fit       0.006127
 4534 Fit       0.005702
 4535 Fit       0.005077
 4536 Fit       0.007591
 4537 Fit       0.007686
 4538 Fit       0.007729
 4539 Fit       0.007695
 4540 Fit       0.007568
 4541 Fit       0.007345
 4542 Fit       0.007041
 4543 Fit       0.006679
 4544 Fit       0.009260
 4545 Fit       0.008970
 4546 Fit       0.008827
 4547 Fit       0.008754
 4548 Fit       0.008691
 4549 Fit       0.008596
 4550 Fit       0.008452
 4551 Fit       0.008263
 4552 Fit       0.008055
 4553 Fit       0.007880
 4554 Fit       0.007808
 4555 Fit       0.010705
 4556 Fit       0.010024
 4557 Fit       0.009673
 4558 Fit       0.009490
 4559 Fit       0.009376
 4560 Fit       0.009268
 4561 Fit       0.009137
 4562 Fit       0.008978
 4563 Fit       0.008814
 4564 Fit       0.008698
 4565 Fit       0.008726
 4566 Fit       0.009052
 4567 Fit       0.011612
 4568 Fit       0.010674
 4569 Fit       0.010183
 4570 Fit       0.009923
 4571 Fit       0.009770
 4572 Fit       0.009649
 4573 Fit       0.009523
 4574 Fit       0.009378
 4575 Fit       0.009228
 4576 Fit       0.009113
 4577 Fit       0.009115
 4578 Fit       0.009376
 4579 Fit       0.011851
 4580 Fit       0.010839
 4581 Fit       0.010304
 4582 Fit       0.010018
 4583 Fit       0.009850
 4584 Fit       0.009723
 4585 Fit       0.009597
 4586 Fit       0.009454
 4587 Fit       0.009303
 4588 Fit       0.009178
 4589 Fit       0.009149
 4590 Fit       0.009341
 4591 Fit       0.009984
 4592 Fit       0.011376
 4593 Fit       0.010470
 4594 Fit       0.009996
 4595 Fit       0.009744
 4596 Fit       0.009593
 4597 Fit       0.009471
 4598 Fit       0.009338
 4599 Fit       0.009181
 4600 Fit       0.009015
 4601 Fit       0.008879
 4602 Fit       0.008854
 4603 Fit       0.009085
 4604 Fit       0.010245
 4605 Fit       0.009620
 4606 Fit       0.009300
 4607 Fit       0.009132
 4608 Fit       0.009020
 4609 Fit       0.008905
 4610 Fit       0.008756
 4611 Fit       0.008570
 4612 Fit       0.008367
 4613 Fit       0.008201
 4614 Fit       0.008167
 4615 Fit       0.008427
 4616 Fit       0.008592
 4617 Fit       0.008372
 4618 Fit       0.008267
 4619 Fit       0.008211
 4620 Fit       0.008147
 4621 Fit       0.008036
 4622 Fit       0.007860
 4623 Fit       0.007622
 4624 Fit       0.007347
 4625 Fit       0.007083
 4626 Fit       0.006904
 4627 Fit       0.006804
 4628 Fit       0.006939
 4629 Fit       0.006992
 4630 Fit       0.006945
 4631 Fit       0.006779
 4632 Fit       0.006490
 4633 Fit       0.006091
 4634 Fit       0.005600
 4635 Fit       0.005013
 4636 Fit       0.005366
 4637 Fit       0.005483
 4638 Fit       0.005380
 4639 Fit       0.005058
 4640 Fit       0.004511
 4641 Fit       0.003713
 4642 Fit       0.003561
 4643 Fit       0.003585
 4644 Fit       0.003186
 4645 Fit       0.005463
 4646 Fit       0.005276
 4647 Fit       0.005277
 4648 Fit       0.007084
 4649 Fit       0.006991
 4650 Fit       0.006710
 4651 Fit       0.006214
 4652 Fit       0.006217
 4653 Fit       0.006711
 4654 Fit       0.006992
 4655 Fit       0.008356
 4656 Fit       0.008308
 4657 Fit       0.008170
 4658 Fit       0.007960
 4659 Fit       0.007685
 4660 Fit       0.007688
 4661 Fit       0.007962
 4662 Fit       0.008171
 4663 Fit       0.008308
 4664 Fit       0.009309
 4665 Fit       0.009286
 4666 Fit       0.009226
 4667 Fit       0.009161
 4668 Fit       0.009142
 4669 Fit       0.009231
 4670 Fit       0.009234
 4671 Fit       0.009144
 4672 Fit       0.009163
 4673 Fit       0.009227
 4674 Fit       0.009286
 4675 Fit       0.009961
 4676 Fit       0.009949
 4677 Fit       0.009927
 4678 Fit       0.009934
 4679 Fit       0.010043
 4680 Fit       0.010370
 4681 Fit       0.010373
 4682 Fit       0.010046
 4683 Fit       0.009936
 4684 Fit       0.009928
 4685 Fit       0.009950
 4686 Fit       0.010321
 4687 Fit       0.010316
 4688 Fit       0.010312
 4689 Fit       0.010350
 4690 Fit       0.010504
 4691 Fit       0.010902
 4692 Fit       0.010906
 4693 Fit       0.010507
 4694 Fit       0.010352
 4695 Fit       0.010314
 4696 Fit       0.010316
 4697 Fit       0.010395
 4698 Fit       0.010391
 4699 Fit       0.010392
 4700 Fit       0.010436
 4701 Fit       0.010594
 4702 Fit       0.010992
 4703 Fit       0.011850
 4704 Fit       0.011854
 4705 Fit       0.010995
 4706 Fit       0.010597
 4707 Fit       0.010438
 4708 Fit       0.010394
 4709 Fit       0.010392
 4710 Fit       0.010183
 4711 Fit       0.010177
 4712 Fit       0.010171
 4713 Fit       0.010206
 4714 Fit       0.010357
 4715 Fit       0.010753
 4716 Fit       0.010757
 4717 Fit       0.010360
 4718 Fit       0.010208
 4719 Fit       0.010173
 4720 Fit       0.010177
 4721 Fit       0.009681
 4722 Fit       0.009668
 4723 Fit       0.009641
 4724 Fit       0.009641
 4725 Fit       0.009742
 4726 Fit       0.010063
 4727 Fit       0.010067
 4728 Fit       0.009745
 4729 Fit       0.009644
 4730 Fit       0.009643
 4731 Fit       0.009668
 4732 Fit       0.008882
 4733 Fit       0.008856
 4734 Fit       0.008788
 4735 Fit       0.008710
 4736 Fit       0.008674
 4737 Fit       0.008746
 4738 Fit       0.008751
 4739 Fit       0.008678
 4740 Fit       0.008713
 4741 Fit       0.008789
 4742 Fit       0.008856
 4743 Fit       0.007773
 4744 Fit       0.007719
 4745 Fit       0.007566
 4746 Fit       0.007332
 4747 Fit       0.007023
 4748 Fit       0.007027
 4749 Fit       0.007334
 4750 Fit       0.007568
 4751 Fit       0.007720
 4752 Fit       0.006331
 4753 Fit       0.006229
 4754 Fit       0.005921
 4755 Fit       0.005379
 4756 Fit       0.005383
 4757 Fit       0.005923
 4758 Fit       0.006230
 4759 Fit       0.004522
 4760 Fit       0.004318
 4761 Fit       0.004320
 4762 Fit       0.004499
 4763 Fit       0.004796
 4764 Fit       0.004732
 4765 Fit       0.005078
 4766 Fit       0.005704
 4767 Fit       0.006129
 4768 Fit       0.006372
 4769 Fit       0.006435
 4770 Fit       0.006315
 4771 Fit       0.005997
 4772 Fit       0.006680
 4773 Fit       0.007042
 4774 Fit       0.007346
 4775 Fit       0.007570
 4776 Fit       0.007697
 4777 Fit       0.007731
 4778 Fit       0.007689
 4779 Fit       0.007595
 4780 Fit       0.009265
 4781 Fit       0.007809
 4782 Fit       0.007881
 4783 Fit       0.008056
 4784 Fit       0.008264
 4785 Fit       0.008453
 4786 Fit       0.008598
 4787 Fit       0.008693
 4788 Fit       0.008757
 4789 Fit       0.008830
 4790 Fit       0.008974
 4791 Fit       0.010710
 4792 Fit       0.009053
 4793 Fit       0.008726
 4794 Fit       0.008698
 4795 Fit       0.008814
 4796 Fit       0.008978
 4797 Fit       0.009138
 4798 Fit       0.009270
 4799 Fit       0.009378
 4800 Fit       0.009493
 4801 Fit       0.009676
 4802 Fit       0.010028
 4803 Fit       0.011617
 4804 Fit       0.009376
 4805 Fit       0.009115
 4806 Fit       0.009113
 4807 Fit       0.009228
 4808 Fit       0.009379
 4809 Fit       0.009524
 4810 Fit       0.009651
 4811 Fit       0.009772
 4812 Fit       0.009926
 4813 Fit       0.010186
 4814 Fit       0.010678
 4815 Fit       0.011856
 4816 Fit       0.009982
 4817 Fit       0.009340
 4818 Fit       0.009149
 4819 Fit       0.009178
 4820 Fit       0.009303
 4821 Fit       0.009455
 4822 Fit       0.009598
 4823 Fit       0.009725
 4824 Fit       0.009852
 4825 Fit       0.010020
 4826 Fit       0.010307
 4827 Fit       0.010843
 4828 Fit       0.011381
 4829 Fit       0.009083
 4830 Fit       0.008853
 4831 Fit       0.008878
 4832 Fit       0.009015
 4833 Fit       0.009182
 4834 Fit       0.009338
 4835 Fit       0.009472
 4836 Fit       0.009595
 4837 Fit       0.009747
 4838 Fit       0.009999
 4839 Fit       0.010474
 4840 Fit       0.010249
 4841 Fit       0.008424
 4842 Fit       0.008165
 4843 Fit       0.008200
 4844 Fit       0.008366
 4845 Fit       0.008569
 4846 Fit       0.008756
 4847 Fit       0.008905
 4848 Fit       0.009021
 4849 Fit       0.009134
 4850 Fit       0.009302
 4851 Fit       0.009624
 4852 Fit       0.008596
 4853 Fit       0.006901
 4854 Fit       0.007081
 4855 Fit       0.007345
 4856 Fit       0.007621
 4857 Fit       0.007860
 4858 Fit       0.008037
 4859 Fit       0.008148
 4860 Fit       0.008213
 4861 Fit       0.008269
 4862 Fit       0.008375
 4863 Fit       0.005597
 4864 Fit       0.006089
 4865 Fit       0.006489
 4866 Fit       0.006779
 4867 Fit       0.006946
 4868 Fit       0.006994
 4869 Fit       0.006941
 4870 Fit       0.006807
 4871 Fit       0.003710
 4872 Fit       0.004508
 4873 Fit       0.005057
 4874 Fit       0.005380
 4875 Fit       0.005483
 4876 Fit       0.005367
 4877 Fit       0.005015
 4878 Fit       0.003184
 4879 Fit       0.003585
 4880 Fit       0.003562
 4881 Fit       0.002874
 4882 Fit       0.002494
 4883 Fit       0.001900
 4884 Fit       0.004337
 4885 Fit       0.004124
 4886 Fit       0.003617
 4887 Fit       0.002844
 4888 Fit       0.001882
 4889 Fit       0.005902
 4890 Fit       0.005586
 4891 Fit       0.005105
 4892 Fit       0.004419
 4893 Fit       0.003478
 4894 Fit       0.002251
 4895 Fit       0.000760
 4896 Fit       0.007122
 4897 Fit       0.006497
 4898 Fit       0.005833
 4899 Fit       0.005031
 4900 Fit       0.004002
 4901 Fit       0.002660
 4902 Fit       0.000923
 4903 Fit       0.008435
 4904 Fit       0.007502
 4905 Fit       0.006690
 4906 Fit       0.005838
 4907 Fit       0.004816
 4908 Fit       0.003505
 4909 Fit       0.001777
 4910 Fit      -0.000532
 4911 Fit       0.009549
 4912 Fit       0.008293
 4913 Fit       0.007330
 4914 Fit       0.006434
 4915 Fit       0.005445
 4916 Fit       0.004232
 4917 Fit       0.002658
 4918 Fit       0.000556
 4919 Fit      -0.002317
 4920 Fit       0.009930
 4921 Fit       0.008510
 4922 Fit       0.007460
 4923 Fit       0.006522
 4924 Fit       0.005524
 4925 Fit       0.004326
 4926 Fit       0.002789
 4927 Fit       0.000745
 4928 Fit      -0.002051
 4929 Fit       0.009065
 4930 Fit       0.007795
 4931 Fit       0.006787
 4932 Fit       0.005815
 4933 Fit       0.004715
 4934 Fit       0.003337
 4935 Fit       0.001522
 4936 Fit      -0.000946
 4937 Fit      -0.004398
 4938 Fit       0.007465
 4939 Fit       0.006467
 4940 Fit       0.005529
 4941 Fit       0.004483
 4942 Fit       0.003173
 4943 Fit       0.001437
 4944 Fit      -0.000935
 4945 Fit      -0.004251
 4946 Fit       0.006374
 4947 Fit       0.005624
 4948 Fit       0.004847
 4949 Fit       0.003936
 4950 Fit       0.002765
 4951 Fit       0.001190
 4952 Fit      -0.000968
 4953 Fit      -0.003957
 4954 Fit       0.003904
 4955 Fit       0.003367
 4956 Fit       0.002525
 4957 Fit       0.001290
 4958 Fit      -0.000479
 4959 Fit      -0.002970
 4960 Fit      -0.006422
 4961 Fit       0.001524
 4962 Fit       0.000825
 4963 Fit      -0.000437
 4964 Fit      -0.002361
 4965 Fit      -0.005075
 4966 Fit      -0.001410
 4967 Fit      -0.002943
 4968 Fit      -0.005295
 -----------------------------------------------------------------
 Leave Link  602 at Wed Sep 16 15:36:24 2015, MaxMem=    33554432 cpu:         0.7

 Test job not archived.
 1\1\GINC-CASEGROUP\FOpt\RHF\6-31G(d)\C6H6S1\CASE\16-Sep-2015\0\\#HF/6-
 31G* SCF=tight Test Pop=MK iop(6/33=2) iop(6/42=6) opt\\remark line go
 es here\\0,1\C,-1.8250567765,0.1198901434,0.8662646842\C,-1.0944745871
 ,0.5561785057,-0.2272436504\C,-1.9504436819,0.9288532609,1.9879902489\
 C,-0.4800300725,1.797573781,-0.201953439\C,-1.3249486517,2.1685631181,
 2.0146335882\C,-0.5948475324,2.6023462831,0.9199940045\H,-1.4097417279
 ,2.7877742046,2.8881752731\S,-2.8601181536,0.3484735298,3.4193889314\H
 ,-4.0549695871,0.8257250026,3.0899210867\H,-1.0038625926,-0.0740603933
 ,-1.0936845356\H,0.0883821522,2.1344552717,-1.0502446172\H,-0.11548682
 89,3.5643890506,0.9460948976\H,-2.2964019599,-0.8451617582,0.851663527
 5\\Version=AS64L-G09RevD.01\State=1-A\HF=-628.2103091\RMSD=9.758e-09\R
 MSF=2.867e-05\Dipole=0.0286281,0.3667492,-0.6663028\Quadrupole=0.57228
 26,0.4680083,-1.0402908,1.3440131,-1.7825615,2.1360547\PG=C01 [X(C6H6S
 1)]\\@


 Where a calculator on the ENIAC is equipped with 18,000
 vacuum tubes and weighs 30 tons, computers inthe future
 may  have only 1,000 vacuum tubes and weigh only 1 1/2 tons.
              ---Popular Mechanics, March 1949
 Job cpu time:       0 days  0 hours  4 minutes  4.6 seconds.
 File lengths (MBytes):  RWF=      9 Int=      0 D2E=      0 Chk=      3 Scr=      1
 Normal termination of Gaussian 09 at Wed Sep 16 15:36:25 2015.
