 Entering Gaussian System, Link 0=/net/cottusp/opt/gaussian/g09revA02_amd64/g09/g09
 Input=tp_g09.com
 Output=tp_g09.log
 Initial command:
 /net/cottusp/opt/gaussian/g09revA02_amd64/g09/l1.exe /u1/scratch/case/Gau-29544.inp -scrdir=/u1/scratch/case/
 Entering Link 1 = /net/cottusp/opt/gaussian/g09revA02_amd64/g09/l1.exe PID=     29545.
  
 Copyright (c) 1988,1990,1992,1993,1995,1998,2003,2009, Gaussian, Inc.
                  All Rights Reserved.
  
 This is part of the Gaussian(R) 09 program.  It is based on
 the Gaussian(R) 03 system (copyright 2003, Gaussian, Inc.),
 the Gaussian(R) 98 system (copyright 1998, Gaussian, Inc.),
 the Gaussian(R) 94 system (copyright 1995, Gaussian, Inc.),
 the Gaussian 92(TM) system (copyright 1992, Gaussian, Inc.),
 the Gaussian 90(TM) system (copyright 1990, Gaussian, Inc.),
 the Gaussian 88(TM) system (copyright 1988, Gaussian, Inc.),
 the Gaussian 86(TM) system (copyright 1986, Carnegie Mellon
 University), and the Gaussian 82(TM) system (copyright 1983,
 Carnegie Mellon University). Gaussian is a federally registered
 trademark of Gaussian, Inc.
  
 This software contains proprietary and confidential information,
 including trade secrets, belonging to Gaussian, Inc.
  
 This software is provided under written license and may be
 used, copied, transmitted, or stored only in accord with that
 written license.
  
 The following legend is applicable only to US Government
 contracts under FAR:
  
                    RESTRICTED RIGHTS LEGEND
  
 Use, reproduction and disclosure by the US Government is
 subject to restrictions as set forth in subparagraphs (a)
 and (c) of the Commercial Computer Software - Restricted
 Rights clause in FAR 52.227-19.
  
 Gaussian, Inc.
 340 Quinnipiac St., Bldg. 40, Wallingford CT 06492
  
  
 ---------------------------------------------------------------
 Warning -- This program may not be used in any manner that
 competes with the business of Gaussian, Inc. or will provide
 assistance to any competitor of Gaussian, Inc.  The licensee
 of this program is prohibited from giving any competitor of
 Gaussian, Inc. access to this program.  By using this program,
 the user acknowledges that Gaussian, Inc. is engaged in the
 business of creating and licensing software in the field of
 computational chemistry and represents and warrants to the
 licensee that it is not a competitor of Gaussian, Inc. and that
 it will not use this program in any manner prohibited above.
 ---------------------------------------------------------------
  

 Cite this work as:
 Gaussian 09, Revision A.02,
 M. J. Frisch, G. W. Trucks, H. B. Schlegel, G. E. Scuseria, 
 M. A. Robb, J. R. Cheeseman, G. Scalmani, V. Barone, B. Mennucci, 
 G. A. Petersson, H. Nakatsuji, M. Caricato, X. Li, H. P. Hratchian, 
 A. F. Izmaylov, J. Bloino, G. Zheng, J. L. Sonnenberg, M. Hada, 
 M. Ehara, K. Toyota, R. Fukuda, J. Hasegawa, M. Ishida, T. Nakajima, 
 Y. Honda, O. Kitao, H. Nakai, T. Vreven, J. A. Montgomery, Jr., 
 J. E. Peralta, F. Ogliaro, M. Bearpark, J. J. Heyd, E. Brothers, 
 K. N. Kudin, V. N. Staroverov, R. Kobayashi, J. Normand, 
 K. Raghavachari, A. Rendell, J. C. Burant, S. S. Iyengar, J. Tomasi, 
 M. Cossi, N. Rega, J. M. Millam, M. Klene, J. E. Knox, J. B. Cross, 
 V. Bakken, C. Adamo, J. Jaramillo, R. Gomperts, R. E. Stratmann, 
 O. Yazyev, A. J. Austin, R. Cammi, C. Pomelli, J. W. Ochterski, 
 R. L. Martin, K. Morokuma, V. G. Zakrzewski, G. A. Voth, 
 P. Salvador, J. J. Dannenberg, S. Dapprich, A. D. Daniels, 
 O. Farkas, J. B. Foresman, J. V. Ortiz, J. Cioslowski, 
 and D. J. Fox, Gaussian, Inc., Wallingford CT, 2009.
 
 ******************************************
 Gaussian 09:  AM64L-G09RevA.02 11-Jun-2009
                27-Jul-2010 
 ******************************************
 --------
 #AM1 Opt
 --------
 1/14=-1,18=20,19=15,26=1,38=1/1,3;
 2/9=110,12=2,17=6,18=5,40=1/2;
 3/5=2,16=1,25=1,41=700000,71=1/1,2,3;
 4/35=1/1;
 5/5=2,35=1,38=5/2;
 6/7=2,8=2,9=2,10=2,28=1/1;
 7//1,2,3,16;
 1/14=-1,18=20,19=15/3(2);
 2/9=110/2;
 99//99;
 2/9=110/2;
 3/5=2,16=1,25=1,41=700000,71=1,135=20/1,2,3;
 4/5=5,16=3,35=1/1;
 5/5=2,35=1,38=5/2;
 7//1,2,3,16;
 1/14=-1,18=20,19=15/3(-5);
 2/9=110/2;
 6/7=2,8=2,9=2,10=2,19=2,28=1/1;
 99/9=1/99;
 -----------------------------------
 Test of guassian semiempirical code
 -----------------------------------
 Symbolic Z-matrix:
 Charge =  0 Multiplicity = 1
 6                    -1.959     0.102     0.795 
 6                    -1.249     0.602    -0.303 
 6                    -2.071     0.865     1.963 
 6                    -0.646     1.863    -0.234 
 6                    -1.472     2.129     2.031 
 6                    -0.759     2.627     0.934 
 1                    -1.558     2.719     2.931 
 16                   -2.782     0.365     3.06 
 1                    -3.541     0.979     3.274 
 1                    -0.787    -0.043    -0.938 
 1                     0.373     2.045    -0.784 
 1                    -0.092     3.578     0.781 
 1                    -2.379    -0.916     0.901 
 

 GradGradGradGradGradGradGradGradGradGradGradGradGradGradGradGradGradGrad
 Berny optimization.
 Initialization pass.
                           ----------------------------
                           !    Initial Parameters    !
                           ! (Angstroms and Degrees)  !
 --------------------------                            --------------------------
 ! Name  Definition              Value          Derivative Info.                !
 --------------------------------------------------------------------------------
 ! R1    R(1,2)                  1.3999         estimate D2E/DX2                !
 ! R2    R(1,3)                  1.3996         estimate D2E/DX2                !
 ! R3    R(1,13)                 1.1063         estimate D2E/DX2                !
 ! R4    R(2,4)                  1.3995         estimate D2E/DX2                !
 ! R5    R(2,10)                 1.0162         estimate D2E/DX2                !
 ! R6    R(3,5)                  1.4004         estimate D2E/DX2                !
 ! R7    R(3,8)                  1.3996         estimate D2E/DX2                !
 ! R8    R(4,6)                  1.4002         estimate D2E/DX2                !
 ! R9    R(4,11)                 1.1722         estimate D2E/DX2                !
 ! R10   R(5,6)                  1.3999         estimate D2E/DX2                !
 ! R11   R(5,7)                  1.0796         estimate D2E/DX2                !
 ! R12   R(6,12)                 1.1716         estimate D2E/DX2                !
 ! R13   R(8,9)                  0.9994         estimate D2E/DX2                !
 ! A1    A(2,1,3)              120.0278         estimate D2E/DX2                !
 ! A2    A(2,1,13)             126.6088         estimate D2E/DX2                !
 ! A3    A(3,1,13)             113.0347         estimate D2E/DX2                !
 ! A4    A(1,2,4)              120.1122         estimate D2E/DX2                !
 ! A5    A(1,2,10)             119.6033         estimate D2E/DX2                !
 ! A6    A(4,2,10)             114.0058         estimate D2E/DX2                !
 ! A7    A(1,3,5)              119.8905         estimate D2E/DX2                !
 ! A8    A(1,3,8)              119.9987         estimate D2E/DX2                !
 ! A9    A(5,3,8)              120.1108         estimate D2E/DX2                !
 ! A10   A(2,4,6)              119.8671         estimate D2E/DX2                !
 ! A11   A(2,4,11)             119.4291         estimate D2E/DX2                !
 ! A12   A(6,4,11)             112.1374         estimate D2E/DX2                !
 ! A13   A(3,5,6)              120.0586         estimate D2E/DX2                !
 ! A14   A(3,5,7)              119.9791         estimate D2E/DX2                !
 ! A15   A(6,5,7)              119.9621         estimate D2E/DX2                !
 ! A16   A(4,6,5)              120.0431         estimate D2E/DX2                !
 ! A17   A(4,6,12)             106.7385         estimate D2E/DX2                !
 ! A18   A(5,6,12)             132.9241         estimate D2E/DX2                !
 ! A19   A(3,8,9)              109.5204         estimate D2E/DX2                !
 ! D1    D(3,1,2,4)              0.2211         estimate D2E/DX2                !
 ! D2    D(3,1,2,10)           150.7278         estimate D2E/DX2                !
 ! D3    D(13,1,2,4)          -172.7162         estimate D2E/DX2                !
 ! D4    D(13,1,2,10)          -22.2094         estimate D2E/DX2                !
 ! D5    D(2,1,3,5)              0.0134         estimate D2E/DX2                !
 ! D6    D(2,1,3,8)            179.9437         estimate D2E/DX2                !
 ! D7    D(13,1,3,5)           173.8565         estimate D2E/DX2                !
 ! D8    D(13,1,3,8)            -6.2132         estimate D2E/DX2                !
 ! D9    D(1,2,4,6)             -0.2799         estimate D2E/DX2                !
 ! D10   D(1,2,4,11)           145.095          estimate D2E/DX2                !
 ! D11   D(10,2,4,6)          -152.3373         estimate D2E/DX2                !
 ! D12   D(10,2,4,11)           -6.9624         estimate D2E/DX2                !
 ! D13   D(1,3,5,6)             -0.1883         estimate D2E/DX2                !
 ! D14   D(1,3,5,7)            179.9626         estimate D2E/DX2                !
 ! D15   D(8,3,5,6)            179.8814         estimate D2E/DX2                !
 ! D16   D(8,3,5,7)              0.0323         estimate D2E/DX2                !
 ! D17   D(1,3,8,9)           -119.933          estimate D2E/DX2                !
 ! D18   D(5,3,8,9)             59.9973         estimate D2E/DX2                !
 ! D19   D(2,4,6,5)              0.1048         estimate D2E/DX2                !
 ! D20   D(2,4,6,12)           174.6512         estimate D2E/DX2                !
 ! D21   D(11,4,6,5)          -147.6008         estimate D2E/DX2                !
 ! D22   D(11,4,6,12)           26.9456         estimate D2E/DX2                !
 ! D23   D(3,5,6,4)              0.1293         estimate D2E/DX2                !
 ! D24   D(3,5,6,12)          -172.7309         estimate D2E/DX2                !
 ! D25   D(7,5,6,4)            179.9784         estimate D2E/DX2                !
 ! D26   D(7,5,6,12)             7.1182         estimate D2E/DX2                !
 --------------------------------------------------------------------------------
 Trust Radius=3.00D-01 FncErr=1.00D-07 GrdErr=1.00D-07
 Number of steps in this run=  68 maximum allowed number of steps= 100.
 GradGradGradGradGradGradGradGradGradGradGradGradGradGradGradGradGradGrad

                          Input orientation:                          
 ---------------------------------------------------------------------
 Center     Atomic      Atomic             Coordinates (Angstroms)
 Number     Number       Type             X           Y           Z
 ---------------------------------------------------------------------
      1          6           0       -1.959000    0.102000    0.795000
      2          6           0       -1.249000    0.602000   -0.303000
      3          6           0       -2.071000    0.865000    1.963000
      4          6           0       -0.646000    1.863000   -0.234000
      5          6           0       -1.472000    2.129000    2.031000
      6          6           0       -0.759000    2.627000    0.934000
      7          1           0       -1.558000    2.719000    2.931000
      8         16           0       -2.782000    0.365000    3.060000
      9          1           0       -3.541000    0.979000    3.274000
     10          1           0       -0.787000   -0.043000   -0.938000
     11          1           0        0.373000    2.045000   -0.784000
     12          1           0       -0.092000    3.578000    0.781000
     13          1           0       -2.379000   -0.916000    0.901000
 ---------------------------------------------------------------------
                    Distance matrix (angstroms):
                    1          2          3          4          5
     1  C    0.000000
     2  C    1.399894   0.000000
     3  C    1.399620   2.424791   0.000000
     4  C    2.425682   1.399461   2.802399   0.000000
     5  C    2.423550   2.798038   1.400400   2.425543   0.000000
     6  C    2.799097   2.422993   2.425867   1.400246   1.399922
     7  H    3.401762   3.877619   2.153488   3.403190   1.079581
     8  S    2.424195   3.703515   1.399618   4.202016   2.426239
     9  H    3.068761   4.265011   1.972972   4.633416   2.673632
    10  H    2.097117   1.016216   3.299837   2.036746   3.741894
    11  H    3.421508   2.223622   3.861547   1.172171   3.366795
    12  H    3.945689   3.371985   3.560047   2.068421   2.359343
    13  H    1.106327   2.242953   2.096347   3.466173   3.372176
                    6          7          8          9         10
     6  C    0.000000
     7  H    2.152876   0.000000
     8  S    3.705273   2.656338   0.000000
     9  H    3.991369   2.660364   0.999436   0.000000
    10  H    3.260992   4.815833   4.486702   5.135167   0.000000
    11  H    2.138147   4.240786   5.249072   5.737867   2.393545
    12  H    1.171622   2.740353   4.770043   4.986527   4.068123
    13  H    3.895939   4.243603   2.542568   3.251522   2.584282
                   11         12         13
    11  H    0.000000
    12  H    2.239540   0.000000
    13  H    4.379526   5.043888   0.000000
 Stoichiometry    C6H6S
 Framework group  C1[X(C6H6S)]
 Deg. of freedom    33
 Full point group                 C1      NOp   1
 Largest Abelian subgroup         C1      NOp   1
 Largest concise Abelian subgroup C1      NOp   1
                         Standard orientation:                         
 ---------------------------------------------------------------------
 Center     Atomic      Atomic             Coordinates (Angstroms)
 Number     Number       Type             X           Y           Z
 ---------------------------------------------------------------------
      1          6           0        0.080650    1.222627    0.038601
      2          6           0        1.479738    1.223347    0.086114
      3          6           0       -0.617779    0.010819   -0.012920
      4          6           0        2.183157    0.013546    0.077554
      5          6           0        0.085301   -1.200290   -0.016563
      6          6           0        1.484536   -1.198926    0.027267
      7          1           0       -0.451999   -2.135852   -0.055664
      8         16           0       -2.016631    0.010784   -0.059218
      9          1           0       -2.377021   -0.478256    0.734402
     10          1           0        1.995109    2.004049   -0.310863
     11          1           0        3.215709   -0.048426   -0.473791
     12          1           0        2.286841   -2.046693   -0.074205
     13          1           0       -0.576160    2.105900   -0.072712
 ---------------------------------------------------------------------
 Rotational constants (GHZ):      5.6698020      1.8603626      1.4095001
 Standard basis: VSTO-6G (5D, 7F)
 There are    34 symmetry adapted basis functions of A   symmetry.
 Integral buffers will be    131072 words long.
 Regular integral format.
 Two-electron integral symmetry is turned off.
    34 basis functions,   204 primitive gaussians,    34 cartesian basis functions
    18 alpha electrons       18 beta electrons
       nuclear repulsion energy       157.9391321868 Hartrees.



 Warning!  S  atom    8 may be hypervalent but has no d functions.



 Do NDO integrals.
 One-electron integrals computed using PRISM.
 NBasis=    34 RedAO= F  NBF=    34
 NBsUse=    34 1.00D-04 NBFU=    34
 Simple Huckel Guess.
 Initial guess orbital symmetries:
       Occupied  (A) (A) (A) (A) (A) (A) (A) (A) (A) (A) (A) (A)
                 (A) (A) (A) (A) (A) (A)
       Virtual   (A) (A) (A) (A) (A) (A) (A) (A) (A) (A) (A) (A)
                 (A) (A) (A) (A)
 The electronic state of the initial guess is 1-A.
 Requested convergence on RMS density matrix=1.00D-08 within 128 cycles.
 Requested convergence on MAX density matrix=1.00D-06.
 Requested convergence on             energy=1.00D-06.
 No special actions if energy rises.
 Overlap will be assumed to be unity.
 Keep J ints in memory in canonical form, NReq=883879.
 SCF Done:  E(RAM1) =  0.203194289477     A.U. after   17 cycles
             Convg  =    0.3034D-08             -V/T =  1.0033

 **********************************************************************

            Population analysis using the SCF density.

 **********************************************************************

 Orbital symmetries:
       Occupied  (A) (A) (A) (A) (A) (A) (A) (A) (A) (A) (A) (A)
                 (A) (A) (A) (A) (A) (A)
       Virtual   (A) (A) (A) (A) (A) (A) (A) (A) (A) (A) (A) (A)
                 (A) (A) (A) (A)
 The electronic state is 1-A.
 Alpha  occ. eigenvalues --   -1.46711  -1.21980  -1.16299  -0.90908  -0.88493
 Alpha  occ. eigenvalues --   -0.74775  -0.67023  -0.61327  -0.59829  -0.54606
 Alpha  occ. eigenvalues --   -0.53052  -0.51764  -0.45680  -0.44551  -0.42208
 Alpha  occ. eigenvalues --   -0.36066  -0.35990  -0.29565
 Alpha virt. eigenvalues --   -0.01800   0.01102   0.03510   0.07938   0.10261
 Alpha virt. eigenvalues --    0.12470   0.13477   0.14768   0.15380   0.16190
 Alpha virt. eigenvalues --    0.16918   0.18323   0.18597   0.19133   0.20417
 Alpha virt. eigenvalues --    0.21271
          Condensed to atoms (all electrons):
              1          2          3          4          5          6
     1  C    4.084040   0.000000   0.000000   0.000000   0.000000   0.000000
     2  C    0.000000   4.122836   0.000000   0.000000   0.000000   0.000000
     3  C    0.000000   0.000000   4.466801   0.000000   0.000000   0.000000
     4  C    0.000000   0.000000   0.000000   4.128044   0.000000   0.000000
     5  C    0.000000   0.000000   0.000000   0.000000   4.092577   0.000000
     6  C    0.000000   0.000000   0.000000   0.000000   0.000000   4.149407
     7  H    0.000000   0.000000   0.000000   0.000000   0.000000   0.000000
     8  S    0.000000   0.000000   0.000000   0.000000   0.000000   0.000000
     9  H    0.000000   0.000000   0.000000   0.000000   0.000000   0.000000
    10  H    0.000000   0.000000   0.000000   0.000000   0.000000   0.000000
    11  H    0.000000   0.000000   0.000000   0.000000   0.000000   0.000000
    12  H    0.000000   0.000000   0.000000   0.000000   0.000000   0.000000
    13  H    0.000000   0.000000   0.000000   0.000000   0.000000   0.000000
              7          8          9         10         11         12
     1  C    0.000000   0.000000   0.000000   0.000000   0.000000   0.000000
     2  C    0.000000   0.000000   0.000000   0.000000   0.000000   0.000000
     3  C    0.000000   0.000000   0.000000   0.000000   0.000000   0.000000
     4  C    0.000000   0.000000   0.000000   0.000000   0.000000   0.000000
     5  C    0.000000   0.000000   0.000000   0.000000   0.000000   0.000000
     6  C    0.000000   0.000000   0.000000   0.000000   0.000000   0.000000
     7  H    0.860194   0.000000   0.000000   0.000000   0.000000   0.000000
     8  S    0.000000   5.458089   0.000000   0.000000   0.000000   0.000000
     9  H    0.000000   0.000000   1.197900   0.000000   0.000000   0.000000
    10  H    0.000000   0.000000   0.000000   0.874872   0.000000   0.000000
    11  H    0.000000   0.000000   0.000000   0.000000   0.860843   0.000000
    12  H    0.000000   0.000000   0.000000   0.000000   0.000000   0.857354
    13  H    0.000000   0.000000   0.000000   0.000000   0.000000   0.000000
             13
     1  C    0.000000
     2  C    0.000000
     3  C    0.000000
     4  C    0.000000
     5  C    0.000000
     6  C    0.000000
     7  H    0.000000
     8  S    0.000000
     9  H    0.000000
    10  H    0.000000
    11  H    0.000000
    12  H    0.000000
    13  H    0.847042
 Mulliken atomic charges:
              1
     1  C   -0.084040
     2  C   -0.122836
     3  C   -0.466801
     4  C   -0.128044
     5  C   -0.092577
     6  C   -0.149407
     7  H    0.139806
     8  S    0.541911
     9  H   -0.197900
    10  H    0.125128
    11  H    0.139157
    12  H    0.142646
    13  H    0.152958
 Sum of Mulliken atomic charges =   0.00000
 Mulliken charges with hydrogens summed into heavy atoms:
              1
     1  C    0.068918
     2  C    0.002291
     3  C   -0.466801
     4  C    0.011113
     5  C    0.047229
     6  C   -0.006761
     8  S    0.344011
 Sum of Mulliken charges with hydrogens summed into heavy atoms =   0.00000
 Charge=              0.0000 electrons
 Dipole moment (field-independent basis, Debye):
    X=              0.9544    Y=             -0.5855    Z=             -0.1638  Tot=              1.1316
 N-N= 1.579391321868D+02 E-N=-2.297003768422D+02  KE=-6.135492178849D+01
 Calling FoFJK, ICntrl=      2127 FMM=F ISym2X=0 I1Cent= 0 IOpClX= 0 NMat=1 NMatS=1 NMatT=0.
 ***** Axes restored to original set *****
 -------------------------------------------------------------------
 Center     Atomic                   Forces (Hartrees/Bohr)
 Number     Number              X              Y              Z
 -------------------------------------------------------------------
      1        6           0.011179015    0.000629738   -0.027138693
      2        6           0.000380841    0.026968781    0.057070451
      3        6           0.083339222    0.088996039   -0.151732881
      4        6           0.044839670   -0.013102280    0.014670361
      5        6           0.030529253    0.037692822   -0.045022564
      6        6           0.017176495    0.023581698   -0.016710036
      7        1           0.000245169    0.008033231    0.013192616
      8       16           0.041181076   -0.244866531    0.151955332
      9        1          -0.167473554    0.142953688    0.050488609
     10        1           0.012178233   -0.046907715   -0.057636333
     11        1          -0.044682621   -0.000189635   -0.001745985
     12        1          -0.030390476   -0.024028273    0.026816690
     13        1           0.001497676    0.000238438   -0.014207566
 -------------------------------------------------------------------
 Cartesian Forces:  Max     0.244866531 RMS     0.071027958

 GradGradGradGradGradGradGradGradGradGradGradGradGradGradGradGradGradGrad
 Berny optimization.
 Internal  Forces:  Max     0.259236039 RMS     0.048221810
 Search for a local minimum.
 Step number   1 out of a maximum of   68
 All quantities printed in internal units (Hartrees-Bohrs-Radians)
 Mixed Optimization -- RFO/linear search
 Second derivative matrix not updated -- first step.
     Eigenvalues ---    0.02086   0.02087   0.02090   0.02092   0.02110
     Eigenvalues ---    0.02119   0.02591   0.02697   0.02849   0.05667
     Eigenvalues ---    0.13666   0.14727   0.15903   0.15912   0.16000
     Eigenvalues ---    0.16000   0.22046   0.22277   0.23521   0.25000
     Eigenvalues ---    0.26813   0.26858   0.32992   0.36045   0.41516
     Eigenvalues ---    0.41784   0.44947   0.45579   0.45633   0.45636
     Eigenvalues ---    0.45687   0.93487   1.224711000.000001000.00000
     Eigenvalues --- 1000.000001000.000001000.000001000.000001000.00000
     Eigenvalues --- 1000.000001000.000001000.000001000.000001000.00000
     Eigenvalues --- 1000.000001000.000001000.000001000.000001000.00000
     Eigenvalues --- 1000.000001000.000001000.000001000.000001000.00000
     Eigenvalues --- 1000.000001000.000001000.00000
 RFO step:  Lambda=-1.38760795D-01 EMin= 2.08624482D-02
 Linear search not attempted -- first point.
 Maximum step size (   0.300) exceeded in Quadratic search.
    -- Step size scaled by   0.651
 Iteration  1 RMS(Cart)=  0.04926687 RMS(Int)=  0.00115212
 Iteration  2 RMS(Cart)=  0.00104755 RMS(Int)=  0.00028963
 Iteration  3 RMS(Cart)=  0.00000110 RMS(Int)=  0.00028962
 Iteration  4 RMS(Cart)=  0.00000000 RMS(Int)=  0.00028962
 Variable       Old X    -DE/DX   Delta X   Delta X   Delta X     New X
                                 (Linear)    (Quad)   (Total)
    R1        2.64542  -0.00960   0.00000  -0.01055  -0.01047   2.63495
    R2        2.64490   0.03843   0.00000   0.04357   0.04358   2.68848
    R3        2.09066  -0.00215   0.00000  -0.00299  -0.00299   2.08767
    R4        2.64460  -0.00036   0.00000  -0.00201  -0.00194   2.64266
    R5        1.92037   0.07132   0.00000   0.07893   0.07893   1.99930
    R6        2.64637   0.03637   0.00000   0.04146   0.04139   2.68776
    R7        2.64489   0.25924   0.00000   0.12377   0.12377   2.76866
    R8        2.64608   0.00545   0.00000   0.00439   0.00438   2.65047
    R9        2.21508  -0.03805   0.00000  -0.06088  -0.06088   2.15420
   R10        2.64547  -0.02028   0.00000  -0.02214  -0.02222   2.62325
   R11        2.04011   0.01537   0.00000   0.02004   0.02004   2.06015
   R12        2.21405  -0.04031   0.00000  -0.06441  -0.06441   2.14963
   R13        1.88866   0.22582   0.00000   0.13692   0.13692   2.02558
    A1        2.09488   0.01006   0.00000   0.01931   0.01955   2.11443
    A2        2.20974  -0.01950   0.00000  -0.04084  -0.04106   2.16868
    A3        1.97283   0.00992   0.00000   0.02331   0.02315   1.99597
    A4        2.09635  -0.00268   0.00000  -0.00611  -0.00631   2.09004
    A5        2.08747   0.00078   0.00000   0.00738   0.00650   2.09397
    A6        1.98978   0.00892   0.00000   0.02659   0.02593   2.01570
    A7        2.09248  -0.02511   0.00000  -0.03866  -0.03855   2.05393
    A8        2.09437   0.00575   0.00000   0.00794   0.00786   2.10223
    A9        2.09633   0.01936   0.00000   0.03073   0.03065   2.12698
   A10        2.09208   0.00651   0.00000   0.00815   0.00781   2.09988
   A11        2.08443  -0.00668   0.00000  -0.00573  -0.00680   2.07764
   A12        1.95717   0.00939   0.00000   0.03168   0.03110   1.98827
   A13        2.09542   0.00809   0.00000   0.01577   0.01580   2.11122
   A14        2.09403  -0.00366   0.00000  -0.00705  -0.00707   2.08696
   A15        2.09373  -0.00442   0.00000  -0.00871  -0.00873   2.08500
   A16        2.09515   0.00314   0.00000   0.00156   0.00166   2.09681
   A17        1.86294   0.02467   0.00000   0.05676   0.05672   1.91966
   A18        2.31996  -0.02765   0.00000  -0.05753  -0.05760   2.26237
   A19        1.91149  -0.00376   0.00000  -0.00819  -0.00819   1.90330
    D1        0.00386  -0.00130   0.00000  -0.00624  -0.00643  -0.00257
    D2        2.63070   0.01659   0.00000   0.06214   0.06175   2.69245
    D3       -3.01447  -0.00731   0.00000  -0.02721  -0.02689  -3.04135
    D4       -0.38763   0.01057   0.00000   0.04118   0.04129  -0.34634
    D5        0.00023   0.00138   0.00000   0.00482   0.00485   0.00508
    D6        3.14061   0.00389   0.00000   0.01551   0.01540  -3.12718
    D7        3.03437   0.00460   0.00000   0.01874   0.01906   3.05343
    D8       -0.10844   0.00711   0.00000   0.02942   0.02961  -0.07883
    D9       -0.00489  -0.00073   0.00000  -0.00057  -0.00042  -0.00530
   D10        2.53238   0.01920   0.00000   0.07219   0.07200   2.60438
   D11       -2.65879  -0.01563   0.00000  -0.06064  -0.06076  -2.71955
   D12       -0.12152   0.00430   0.00000   0.01211   0.01165  -0.10987
   D13       -0.00329   0.00049   0.00000   0.00329   0.00348   0.00020
   D14        3.14094  -0.00066   0.00000  -0.00147  -0.00141   3.13953
   D15        3.13952  -0.00201   0.00000  -0.00738  -0.00721   3.13231
   D16        0.00056  -0.00316   0.00000  -0.01215  -0.01210  -0.01154
   D17       -2.09323  -0.00648   0.00000  -0.02277  -0.02291  -2.11614
   D18        1.04715  -0.00399   0.00000  -0.01211  -0.01196   1.03519
   D19        0.00183   0.00262   0.00000   0.00873   0.00873   0.01056
   D20        3.04824   0.00240   0.00000   0.01264   0.01314   3.06138
   D21       -2.57612  -0.01083   0.00000  -0.04768  -0.04846  -2.62458
   D22        0.47029  -0.01105   0.00000  -0.04377  -0.04405   0.42624
   D23        0.00226  -0.00247   0.00000  -0.01004  -0.01020  -0.00794
   D24       -3.01472  -0.00633   0.00000  -0.02402  -0.02399  -3.03871
   D25        3.14121  -0.00132   0.00000  -0.00527  -0.00531   3.13591
   D26        0.12424  -0.00518   0.00000  -0.01925  -0.01910   0.10514
         Item               Value     Threshold  Converged?
 Maximum Force            0.259236     0.000450     NO 
 RMS     Force            0.048222     0.000300     NO 
 Maximum Displacement     0.152530     0.001800     NO 
 RMS     Displacement     0.049069     0.001200     NO 
 Predicted change in Energy=-6.717509D-02
 GradGradGradGradGradGradGradGradGradGradGradGradGradGradGradGradGradGrad

                          Input orientation:                          
 ---------------------------------------------------------------------
 Center     Atomic      Atomic             Coordinates (Angstroms)
 Number     Number       Type             X           Y           Z
 ---------------------------------------------------------------------
      1          6           0       -1.936054    0.104804    0.783469
      2          6           0       -1.216530    0.592524   -0.306777
      3          6           0       -2.070805    0.867484    1.976862
      4          6           0       -0.616751    1.853723   -0.234255
      5          6           0       -1.451405    2.147211    2.016643
      6          6           0       -0.741305    2.631186    0.926447
      7          1           0       -1.536746    2.758590    2.915219
      8         16           0       -2.815150    0.332545    3.119818
      9          1           0       -3.621647    0.998378    3.354715
     10          1           0       -0.778551   -0.081056   -0.995104
     11          1           0        0.344520    2.043643   -0.816823
     12          1           0       -0.119900    3.578915    0.828188
     13          1           0       -2.361677   -0.912946    0.842598
 ---------------------------------------------------------------------
                    Distance matrix (angstroms):
                    1          2          3          4          5
     1  C    0.000000
     2  C    1.394354   0.000000
     3  C    1.422683   2.453650   0.000000
     4  C    2.415583   1.398434   2.824178   0.000000
     5  C    2.434549   2.805441   1.422301   2.418537   0.000000
     6  C    2.798299   2.429573   2.445729   1.402566   1.388164
     7  H    3.427301   3.895592   2.177617   3.403580   1.090187
     8  S    2.506632   3.790083   1.465113   4.289143   2.523848
     9  H    3.201719   4.399526   2.078635   4.758332   2.796463
    10  H    2.130183   1.057984   3.376719   2.085291   3.806379
    11  H    3.394267   2.191522   3.875800   1.139955   3.356278
    12  H    3.920442   3.377761   3.532328   2.086129   2.288035
    13  H    1.104748   2.213339   2.130984   3.443667   3.401697
                    6          7          8          9         10
     6  C    0.000000
     7  H    2.145733   0.000000
     8  S    3.794135   2.749887   0.000000
     9  H    4.105961   2.763751   1.071890   0.000000
    10  H    3.324155   4.891735   4.609922   5.307476   0.000000
    11  H    2.136168   4.240100   5.329964   5.850196   2.409859
    12  H    1.137536   2.652561   4.801548   5.030382   4.141691
    13  H    3.897886   4.296097   2.634884   3.398737   2.564270
                   11         12         13
    11  H    0.000000
    12  H    2.297565   0.000000
    13  H    4.338042   5.020218   0.000000
 Stoichiometry    C6H6S
 Framework group  C1[X(C6H6S)]
 Deg. of freedom    33
 Full point group                 C1      NOp   1
 Largest Abelian subgroup         C1      NOp   1
 Largest concise Abelian subgroup C1      NOp   1
                         Standard orientation:                         
 ---------------------------------------------------------------------
 Center     Atomic      Atomic             Coordinates (Angstroms)
 Number     Number       Type             X           Y           Z
 ---------------------------------------------------------------------
      1          6           0       -0.119719   -1.221864    0.042592
      2          6           0       -1.513628   -1.221298    0.077790
      3          6           0        0.615586   -0.005027   -0.008987
      4          6           0       -2.207608   -0.007273    0.065514
      5          6           0       -0.120505    1.211955   -0.016994
      6          6           0       -1.508045    1.207682    0.024437
      7          1           0        0.411899    2.162574   -0.054089
      8         16           0        2.079556   -0.023908   -0.063679
      9          1           0        2.468093    0.513999    0.778131
     10          1           0       -2.051880   -2.057135   -0.284138
     11          1           0       -3.238154    0.036129   -0.419859
     12          1           0       -2.239177    2.074520   -0.065156
     13          1           0        0.499828   -2.132607   -0.042131
 ---------------------------------------------------------------------
 Rotational constants (GHZ):      5.6007596      1.7803834      1.3589558
 Standard basis: VSTO-6G (5D, 7F)
 There are    34 symmetry adapted basis functions of A   symmetry.
 Integral buffers will be    131072 words long.
 Regular integral format.
 Two-electron integral symmetry is turned off.
    34 basis functions,   204 primitive gaussians,    34 cartesian basis functions
    18 alpha electrons       18 beta electrons
       nuclear repulsion energy       156.7067495854 Hartrees.



 Warning!  S  atom    8 may be hypervalent but has no d functions.



 Do NDO integrals.
 One-electron integrals computed using PRISM.
 NBasis=    34 RedAO= F  NBF=    34
 NBsUse=    34 1.00D-04 NBFU=    34
 Initial guess read from the read-write file.
 B after Tr=     0.000000    0.000000    0.000000
         Rot=    1.000000    0.000000    0.000000    0.000000 Ang=   0.00 deg.
 Initial guess orbital symmetries:
       Occupied  (A) (A) (A) (A) (A) (A) (A) (A) (A) (A) (A) (A)
                 (A) (A) (A) (A) (A) (A)
       Virtual   (A) (A) (A) (A) (A) (A) (A) (A) (A) (A) (A) (A)
                 (A) (A) (A) (A)
 Requested convergence on RMS density matrix=1.00D-08 within 128 cycles.
 Requested convergence on MAX density matrix=1.00D-06.
 Requested convergence on             energy=1.00D-06.
 No special actions if energy rises.
 Overlap will be assumed to be unity.
 Keep J ints in memory in canonical form, NReq=883879.
 SCF Done:  E(RAM1) =  0.131258683135     A.U. after   18 cycles
             Convg  =    0.4971D-08             -V/T =  1.0021
 Calling FoFJK, ICntrl=      2127 FMM=F ISym2X=0 I1Cent= 0 IOpClX= 0 NMat=1 NMatS=1 NMatT=0.
 ***** Axes restored to original set *****
 -------------------------------------------------------------------
 Center     Atomic                   Forces (Hartrees/Bohr)
 Number     Number              X              Y              Z
 -------------------------------------------------------------------
      1        6           0.000492355    0.008956194    0.006062699
      2        6           0.013299644    0.012586432    0.035916140
      3        6           0.068861606    0.074594927   -0.128701903
      4        6           0.033294269   -0.013626871    0.014781959
      5        6           0.003399068    0.004749808   -0.020767974
      6        6           0.011889696    0.011319524   -0.018965368
      7        1          -0.000201494    0.002710375    0.007270156
      8       16           0.019388635   -0.162323130    0.104000340
      9        1          -0.099571514    0.091411905    0.028642985
     10        1          -0.002798665   -0.021637128   -0.031930485
     11        1          -0.029839250    0.002994460   -0.005682624
     12        1          -0.019105665   -0.012857071    0.018382578
     13        1           0.000891315    0.001120574   -0.009008503
 -------------------------------------------------------------------
 Cartesian Forces:  Max     0.162323130 RMS     0.048381766

 GradGradGradGradGradGradGradGradGradGradGradGradGradGradGradGradGradGrad
 Berny optimization.
 Using GEDIIS/GDIIS optimizer.
 Internal  Forces:  Max     0.170104494 RMS     0.030163856
 Search for a local minimum.
 Step number   2 out of a maximum of   68
 All quantities printed in internal units (Hartrees-Bohrs-Radians)
 Mixed Optimization -- RFO/linear search
 Update second derivatives using D2CorX and points    1    2
 DE= -7.19D-02 DEPred=-6.72D-02 R= 1.07D+00
 SS=  1.41D+00  RLast= 3.00D-01 DXNew= 5.0454D-01 8.9993D-01
 Trust test= 1.07D+00 RLast= 3.00D-01 DXMaxT set to 5.05D-01
 Use linear search instead of GDIIS.
 Linear search step of   0.600 exceeds DXMaxT=   0.505 but not scaled.
 Quartic linear search produced a step of  2.00000.
 Iteration  1 RMS(Cart)=  0.08805140 RMS(Int)=  0.01248237
 Iteration  2 RMS(Cart)=  0.01391678 RMS(Int)=  0.00176214
 Iteration  3 RMS(Cart)=  0.00002857 RMS(Int)=  0.00176194
 Iteration  4 RMS(Cart)=  0.00000004 RMS(Int)=  0.00176194
 Variable       Old X    -DE/DX   Delta X   Delta X   Delta X     New X
                                 (Linear)    (Quad)   (Total)
    R1        2.63495  -0.00565  -0.02094   0.00000  -0.02045   2.61450
    R2        2.68848  -0.00190   0.08716   0.00000   0.08724   2.77572
    R3        2.08767  -0.00186  -0.00597   0.00000  -0.00597   2.08170
    R4        2.64266  -0.00325  -0.00388   0.00000  -0.00343   2.63923
    R5        1.99930   0.03339   0.15786   0.00000   0.15786   2.15716
    R6        2.68776  -0.00128   0.08277   0.00000   0.08230   2.77006
    R7        2.76866   0.17010   0.24754   0.00000   0.24754   3.01620
    R8        2.65047   0.00018   0.00877   0.00000   0.00874   2.65920
    R9        2.15420  -0.02176  -0.12176   0.00000  -0.12176   2.03244
   R10        2.62325  -0.00808  -0.04444   0.00000  -0.04494   2.57831
   R11        2.06015   0.00753   0.04008   0.00000   0.04008   2.10024
   R12        2.14963  -0.02274  -0.12883   0.00000  -0.12883   2.02081
   R13        2.02558   0.13798   0.27384   0.00000   0.27384   2.29942
    A1        2.11443   0.00545   0.03909   0.00000   0.04054   2.15497
    A2        2.16868  -0.01177  -0.08212   0.00000  -0.08336   2.08532
    A3        1.99597   0.00663   0.04629   0.00000   0.04520   2.04118
    A4        2.09004  -0.00093  -0.01262   0.00000  -0.01384   2.07620
    A5        2.09397  -0.00030   0.01300   0.00000   0.00775   2.10172
    A6        2.01570   0.00646   0.05185   0.00000   0.04775   2.06346
    A7        2.05393  -0.00719  -0.07710   0.00000  -0.07643   1.97751
    A8        2.10223  -0.00071   0.01572   0.00000   0.01522   2.11745
    A9        2.12698   0.00789   0.06130   0.00000   0.06083   2.18781
   A10        2.09988  -0.00203   0.01562   0.00000   0.01349   2.11337
   A11        2.07764  -0.00150  -0.01359   0.00000  -0.01968   2.05796
   A12        1.98827   0.00991   0.06221   0.00000   0.05861   2.04688
   A13        2.11122   0.00454   0.03161   0.00000   0.03181   2.14303
   A14        2.08696  -0.00365  -0.01414   0.00000  -0.01427   2.07269
   A15        2.08500  -0.00089  -0.01747   0.00000  -0.01761   2.06739
   A16        2.09681   0.00015   0.00333   0.00000   0.00403   2.10084
   A17        1.91966   0.01949   0.11344   0.00000   0.11309   2.03274
   A18        2.26237  -0.01946  -0.11519   0.00000  -0.11564   2.14673
   A19        1.90330  -0.01175  -0.01638   0.00000  -0.01638   1.88692
    D1       -0.00257  -0.00125  -0.01285   0.00000  -0.01395  -0.01651
    D2        2.69245   0.01357   0.12351   0.00000   0.12069   2.81314
    D3       -3.04135  -0.00549  -0.05378   0.00000  -0.05180  -3.09315
    D4       -0.34634   0.00933   0.08258   0.00000   0.08284  -0.26349
    D5        0.00508   0.00137   0.00970   0.00000   0.00986   0.01494
    D6       -3.12718   0.00304   0.03080   0.00000   0.03019  -3.09699
    D7        3.05343   0.00419   0.03812   0.00000   0.03968   3.09310
    D8       -0.07883   0.00585   0.05922   0.00000   0.06001  -0.01882
    D9       -0.00530  -0.00042  -0.00083   0.00000   0.00011  -0.00519
   D10        2.60438   0.01588   0.14399   0.00000   0.14228   2.74667
   D11       -2.71955  -0.01303  -0.12153   0.00000  -0.12215  -2.84170
   D12       -0.10987   0.00326   0.02330   0.00000   0.02002  -0.08984
   D13        0.00020   0.00016   0.00697   0.00000   0.00812   0.00832
   D14        3.13953  -0.00067  -0.00282   0.00000  -0.00241   3.13712
   D15        3.13231  -0.00158  -0.01442   0.00000  -0.01347   3.11884
   D16       -0.01154  -0.00241  -0.02420   0.00000  -0.02401  -0.03554
   D17       -2.11614  -0.00513  -0.04583   0.00000  -0.04671  -2.16285
   D18        1.03519  -0.00331  -0.02392   0.00000  -0.02304   1.01215
   D19        0.01056   0.00191   0.01746   0.00000   0.01736   0.02791
   D20        3.06138   0.00272   0.02629   0.00000   0.02916   3.09054
   D21       -2.62458  -0.01054  -0.09692   0.00000  -0.10173  -2.72632
   D22        0.42624  -0.00973  -0.08810   0.00000  -0.08993   0.33631
   D23       -0.00794  -0.00178  -0.02040   0.00000  -0.02134  -0.02928
   D24       -3.03871  -0.00535  -0.04798   0.00000  -0.04787  -3.08658
   D25        3.13591  -0.00095  -0.01062   0.00000  -0.01084   3.12506
   D26        0.10514  -0.00452  -0.03820   0.00000  -0.03737   0.06777
         Item               Value     Threshold  Converged?
 Maximum Force            0.170104     0.000450     NO 
 RMS     Force            0.030164     0.000300     NO 
 Maximum Displacement     0.304323     0.001800     NO 
 RMS     Displacement     0.096958     0.001200     NO 
 Predicted change in Energy=-3.889218D-02
 GradGradGradGradGradGradGradGradGradGradGradGradGradGradGradGradGradGrad

                          Input orientation:                          
 ---------------------------------------------------------------------
 Center     Atomic      Atomic             Coordinates (Angstroms)
 Number     Number       Type             X           Y           Z
 ---------------------------------------------------------------------
      1          6           0       -1.887457    0.112830    0.761410
      2          6           0       -1.149319    0.574709   -0.313757
      3          6           0       -2.070736    0.873241    2.004669
      4          6           0       -0.556910    1.837000   -0.234908
      5          6           0       -1.409701    2.181462    1.987068
      6          6           0       -0.705816    2.639177    0.911619
      7          1           0       -1.493815    2.835113    2.881981
      8         16           0       -2.883172    0.265560    3.236828
      9          1           0       -3.781054    1.037962    3.515756
     10          1           0       -0.769535   -0.151236   -1.108639
     11          1           0        0.287049    2.037682   -0.870680
     12          1           0       -0.181552    3.571211    0.912566
     13          1           0       -2.319982   -0.899711    0.727087
 ---------------------------------------------------------------------
                    Distance matrix (angstroms):
                    1          2          3          4          5
     1  C    0.000000
     2  C    1.383533   0.000000
     3  C    1.468846   2.512614   0.000000
     4  C    2.394946   1.396619   2.869879   0.000000
     5  C    2.451475   2.818378   1.465851   2.404804   0.000000
     6  C    2.793075   2.441367   2.485215   1.407191   1.364385
     7  H    3.473125   3.929484   2.225186   3.404264   1.111397
     8  S    2.672541   3.963393   1.596104   4.464737   2.720975
     9  H    3.468141   4.669669   2.288166   5.010094   3.044305
    10  H    2.194667   1.141521   3.526381   2.182132   3.928702
    11  H    3.331253   2.124525   3.896499   1.075522   3.326613
    12  H    3.859191   3.379270   3.469978   2.113073   2.143433
    13  H    1.101588   2.151215   2.199477   3.394620   3.451057
                    6          7          8          9         10
     6  C    0.000000
     7  H    2.131117   0.000000
     8  S    3.972599   2.942590   0.000000
     9  H    4.336186   2.977059   1.216798   0.000000
    10  H    3.445564   5.036656   4.850182   5.645216   0.000000
    11  H    2.127009   4.229638   5.482914   6.065453   2.442203
    12  H    1.069364   2.478400   4.860893   5.113742   4.276401
    13  H    3.894011   4.390334   2.823799   3.696753   2.516742
                   11         12         13
    11  H    0.000000
    12  H    2.398179   0.000000
    13  H    4.240018   4.959479   0.000000
 Stoichiometry    C6H6S
 Framework group  C1[X(C6H6S)]
 Deg. of freedom    33
 Full point group                 C1      NOp   1
 Largest Abelian subgroup         C1      NOp   1
 Largest concise Abelian subgroup C1      NOp   1
                         Standard orientation:                         
 ---------------------------------------------------------------------
 Center     Atomic      Atomic             Coordinates (Angstroms)
 Number     Number       Type             X           Y           Z
 ---------------------------------------------------------------------
      1          6           0       -0.196215   -1.216344    0.049252
      2          6           0       -1.579706   -1.218199    0.059872
      3          6           0        0.611866    0.009219   -0.000855
      4          6           0       -2.257693    0.002677    0.041461
      5          6           0       -0.193025    1.234192   -0.018513
      6          6           0       -1.556852    1.222715    0.018779
      7          1           0        0.327534    2.215578   -0.051736
      8         16           0        2.205298   -0.049910   -0.071732
      9          1           0        2.649551    0.591812    0.861773
     10          1           0       -2.158592   -2.161510   -0.219638
     11          1           0       -3.271814    0.010052   -0.316662
     12          1           0       -2.148655    2.111237   -0.043171
     13          1           0        0.346953   -2.174172    0.017167
 ---------------------------------------------------------------------
 Rotational constants (GHZ):      5.4793936      1.6326356      1.2648622
 Standard basis: VSTO-6G (5D, 7F)
 There are    34 symmetry adapted basis functions of A   symmetry.
 Integral buffers will be    131072 words long.
 Regular integral format.
 Two-electron integral symmetry is turned off.
    34 basis functions,   204 primitive gaussians,    34 cartesian basis functions
    18 alpha electrons       18 beta electrons
       nuclear repulsion energy       154.4937848818 Hartrees.



 Warning!  S  atom    8 may be hypervalent but has no d functions.



 Do NDO integrals.
 One-electron integrals computed using PRISM.
 NBasis=    34 RedAO= F  NBF=    34
 NBsUse=    34 1.00D-04 NBFU=    34
 Initial guess read from the read-write file.
 B after Tr=     0.000000    0.000000    0.000000
         Rot=    1.000000    0.000000    0.000000    0.000000 Ang=   0.00 deg.
 Initial guess orbital symmetries:
       Occupied  (A) (A) (A) (A) (A) (A) (A) (A) (A) (A) (A) (A)
                 (A) (A) (A) (A) (A) (A)
       Virtual   (A) (A) (A) (A) (A) (A) (A) (A) (A) (A) (A) (A)
                 (A) (A) (A) (A)
 Requested convergence on RMS density matrix=1.00D-08 within 128 cycles.
 Requested convergence on MAX density matrix=1.00D-06.
 Requested convergence on             energy=1.00D-06.
 No special actions if energy rises.
 Overlap will be assumed to be unity.
 Keep J ints in memory in canonical form, NReq=883879.
 SCF Done:  E(RAM1) =  0.767344379637E-01 A.U. after   14 cycles
             Convg  =    0.9009D-08             -V/T =  1.0012
 Calling FoFJK, ICntrl=      2127 FMM=F ISym2X=0 I1Cent= 0 IOpClX= 0 NMat=1 NMatS=1 NMatT=0.
 ***** Axes restored to original set *****
 -------------------------------------------------------------------
 Center     Atomic                   Forces (Hartrees/Bohr)
 Number     Number              X              Y              Z
 -------------------------------------------------------------------
      1        6          -0.019043625    0.016978922    0.055900181
      2        6           0.026250599   -0.006290619    0.000709180
      3        6           0.054851142    0.052569640   -0.103793847
      4        6           0.004834643   -0.016318812    0.022456028
      5        6          -0.043403642   -0.044774964    0.027992270
      6        6          -0.000444521   -0.022444260   -0.028815240
      7        1          -0.000903102   -0.007207046   -0.002987549
      8       16           0.007373749   -0.056039221    0.031507285
      9        1          -0.022957878    0.030976981    0.002662752
     10        1          -0.018577929    0.017353406    0.011726269
     11        1           0.005236008    0.012228174   -0.022500692
     12        1           0.008250640    0.022088907    0.004381950
     13        1          -0.001466084    0.000878892    0.000761414
 -------------------------------------------------------------------
 Cartesian Forces:  Max     0.103793847 RMS     0.030229619

 GradGradGradGradGradGradGradGradGradGradGradGradGradGradGradGradGradGrad
 Berny optimization.
 Using GEDIIS/GDIIS optimizer.
 Internal  Forces:  Max     0.063256699 RMS     0.016059619
 Search for a local minimum.
 Step number   3 out of a maximum of   68
 All quantities printed in internal units (Hartrees-Bohrs-Radians)
 Mixed Optimization -- RFO/linear search
 Update second derivatives using D2CorX and points    2    3
 Use linear search instead of GDIIS.
     Eigenvalues ---    0.02086   0.02087   0.02090   0.02093   0.02099
     Eigenvalues ---    0.02101   0.02311   0.02417   0.02845   0.05664
     Eigenvalues ---    0.14838   0.15342   0.15443   0.15970   0.15999
     Eigenvalues ---    0.16286   0.22023   0.22164   0.23550   0.24916
     Eigenvalues ---    0.26829   0.28657   0.32989   0.35968   0.39521
     Eigenvalues ---    0.41549   0.43086   0.45615   0.45631   0.45655
     Eigenvalues ---    0.51417   0.53788   1.094291000.000001000.00000
     Eigenvalues --- 1000.000001000.000001000.000001000.000001000.00000
     Eigenvalues --- 1000.000001000.000001000.000001000.000001000.00000
     Eigenvalues --- 1000.000001000.000001000.000001000.000001000.00000
     Eigenvalues --- 1000.000001000.000001000.000001000.000001000.00000
     Eigenvalues --- 1000.000001000.000001000.00000
 RFO step:  Lambda=-4.04714763D-02 EMin= 2.08622520D-02
 Quartic linear search produced a step of  0.07305.
 Iteration  1 RMS(Cart)=  0.06322587 RMS(Int)=  0.00484231
 Iteration  2 RMS(Cart)=  0.00467273 RMS(Int)=  0.00185580
 Iteration  3 RMS(Cart)=  0.00001539 RMS(Int)=  0.00185576
 Iteration  4 RMS(Cart)=  0.00000001 RMS(Int)=  0.00185576
 Variable       Old X    -DE/DX   Delta X   Delta X   Delta X     New X
                                 (Linear)    (Quad)   (Total)
    R1        2.61450   0.00386  -0.00149   0.00354   0.00262   2.61712
    R2        2.77572  -0.06326   0.00637  -0.12182  -0.11596   2.65975
    R3        2.08170  -0.00026  -0.00044  -0.00143  -0.00187   2.07983
    R4        2.63923  -0.00631  -0.00025  -0.01104  -0.01014   2.62909
    R5        2.15716  -0.02538   0.01153  -0.03225  -0.02072   2.13644
    R6        2.77006  -0.05674   0.00601  -0.10749  -0.10262   2.66743
    R7        3.01620   0.04385   0.01808   0.06808   0.08616   3.10236
    R8        2.65920  -0.00844   0.00064  -0.01217  -0.01097   2.64823
    R9        2.03244   0.01969  -0.00889   0.05001   0.04111   2.07355
   R10        2.57831   0.02125  -0.00328   0.03963   0.03574   2.61406
   R11        2.10024  -0.00658   0.00293  -0.01158  -0.00866   2.09158
   R12        2.02081   0.02330  -0.00941   0.06096   0.05155   2.07236
   R13        2.29942   0.03721   0.02000   0.07518   0.09519   2.39460
    A1        2.15497  -0.00325   0.00296  -0.02012  -0.01570   2.13927
    A2        2.08532   0.00289  -0.00609   0.00948   0.00241   2.08773
    A3        2.04118   0.00045   0.00330   0.01231   0.01462   2.05580
    A4        2.07620   0.00531  -0.00101   0.02479   0.02273   2.09893
    A5        2.10172  -0.00307   0.00057  -0.00193  -0.00771   2.09401
    A6        2.06346   0.00035   0.00349   0.02062   0.01815   2.08161
    A7        1.97751   0.01970  -0.00558   0.04617   0.04040   2.01791
    A8        2.11745  -0.01126   0.00111  -0.03103  -0.02987   2.08758
    A9        2.18781  -0.00846   0.00444  -0.01549  -0.01101   2.17680
   A10        2.11337  -0.01511   0.00099  -0.03700  -0.03769   2.07568
   A11        2.05796   0.00839  -0.00144   0.04099   0.03249   2.09045
   A12        2.04688   0.00951   0.00428   0.05552   0.05323   2.10011
   A13        2.14303  -0.00180   0.00232  -0.00557  -0.00337   2.13966
   A14        2.07269  -0.00349  -0.00104  -0.01925  -0.02024   2.05246
   A15        2.06739   0.00528  -0.00129   0.02479   0.02356   2.09095
   A16        2.10084  -0.00488   0.00029  -0.00879  -0.00717   2.09367
   A17        2.03274   0.00773   0.00826   0.04605   0.05321   2.08595
   A18        2.14673  -0.00268  -0.00845  -0.03411  -0.04369   2.10303
   A19        1.88692  -0.02328  -0.00120  -0.11984  -0.12103   1.76589
    D1       -0.01651  -0.00099  -0.00102  -0.01560  -0.01680  -0.03331
    D2        2.81314   0.00850   0.00882   0.14581   0.15335   2.96649
    D3       -3.09315  -0.00272  -0.00378  -0.04764  -0.05106   3.13897
    D4       -0.26349   0.00677   0.00605   0.11377   0.11909  -0.14440
    D5        0.01494   0.00110   0.00072   0.01791   0.01852   0.03346
    D6       -3.09699   0.00175   0.00221   0.03002   0.03226  -3.06473
    D7        3.09310   0.00288   0.00290   0.04914   0.05179  -3.13829
    D8       -0.01882   0.00353   0.00438   0.06125   0.06553   0.04670
    D9       -0.00519  -0.00004   0.00001  -0.00087  -0.00051  -0.00571
   D10        2.74667   0.01025   0.01039   0.18277   0.19319   2.93985
   D11       -2.84170  -0.00869  -0.00892  -0.15466  -0.16482  -3.00652
   D12       -0.08984   0.00160   0.00146   0.02898   0.02888  -0.06096
   D13        0.00832  -0.00031   0.00059  -0.00477  -0.00386   0.00446
   D14        3.13712  -0.00053  -0.00018  -0.00777  -0.00774   3.12939
   D15        3.11884  -0.00101  -0.00098  -0.01770  -0.01870   3.10014
   D16       -0.03554  -0.00123  -0.00175  -0.02070  -0.02257  -0.05812
   D17       -2.16285  -0.00286  -0.00341  -0.03866  -0.04201  -2.20486
   D18        1.01215  -0.00262  -0.00168  -0.02606  -0.02780   0.98435
   D19        0.02791   0.00058   0.00127   0.01336   0.01436   0.04227
   D20        3.09054   0.00282   0.00213   0.05499   0.05856  -3.13408
   D21       -2.72632  -0.00945  -0.00743  -0.16622  -0.17586  -2.90217
   D22        0.33631  -0.00722  -0.00657  -0.12459  -0.13165   0.20466
   D23       -0.02928  -0.00071  -0.00156  -0.01067  -0.01288  -0.04216
   D24       -3.08658  -0.00357  -0.00350  -0.05893  -0.06207   3.13453
   D25        3.12506  -0.00043  -0.00079  -0.00737  -0.00862   3.11645
   D26        0.06777  -0.00330  -0.00273  -0.05563  -0.05781   0.00996
         Item               Value     Threshold  Converged?
 Maximum Force            0.063257     0.000450     NO 
 RMS     Force            0.016060     0.000300     NO 
 Maximum Displacement     0.181342     0.001800     NO 
 RMS     Displacement     0.063836     0.001200     NO 
 Predicted change in Energy=-2.461922D-02
 GradGradGradGradGradGradGradGradGradGradGradGradGradGradGradGradGradGrad

                          Input orientation:                          
 ---------------------------------------------------------------------
 Center     Atomic      Atomic             Coordinates (Angstroms)
 Number     Number       Type             X           Y           Z
 ---------------------------------------------------------------------
      1          6           0       -1.864296    0.115648    0.803631
      2          6           0       -1.096848    0.559364   -0.260393
      3          6           0       -2.042260    0.872274    1.977024
      4          6           0       -0.495689    1.813261   -0.216428
      5          6           0       -1.420070    2.139259    1.986469
      6          6           0       -0.686162    2.617004    0.915648
      7          1           0       -1.548789    2.766977    2.888933
      8         16           0       -2.877201    0.231125    3.236775
      9          1           0       -3.746609    1.130656    3.438490
     10          1           0       -0.842809   -0.146022   -1.106593
     11          1           0        0.258400    2.082605   -0.966642
     12          1           0       -0.222594    3.609971    0.957474
     13          1           0       -2.337072   -0.877122    0.756613
 ---------------------------------------------------------------------
                    Distance matrix (angstroms):
                    1          2          3          4          5
     1  C    0.000000
     2  C    1.384922   0.000000
     3  C    1.407481   2.449031   0.000000
     4  C    2.407384   1.391253   2.844042   0.000000
     5  C    2.385674   2.765670   1.411545   2.411123   0.000000
     6  C    2.767188   2.405332   2.451449   1.401385   1.383300
     7  H    3.387857   3.872475   2.159860   3.414947   1.106816
     8  S    2.638086   3.937967   1.641698   4.483232   2.706930
     9  H    3.393497   4.585777   2.259967   4.938913   2.922059
    10  H    2.181941   1.130557   3.461835   2.179834   3.888801
    11  H    3.392437   2.157719   3.927227   1.097277   3.397254
    12  H    3.863826   3.399078   3.441752   2.163515   2.157725
    13  H    1.100600   2.153125   2.153301   3.402303   3.384079
                    6          7          8          9         10
     6  C    0.000000
     7  H    2.158813   0.000000
     8  S    3.985060   2.883786   0.000000
     9  H    4.235599   2.794633   1.267168   0.000000
    10  H    3.427581   4.994818   4.811012   5.542540   0.000000
    11  H    2.172739   4.312744   5.561357   6.029220   2.489784
    12  H    1.096645   2.489974   4.864027   4.972035   4.330418
    13  H    3.867779   4.295072   2.769685   3.634616   2.497773
                   11         12         13
    11  H    0.000000
    12  H    2.503283   0.000000
    13  H    4.297217   4.964411   0.000000
 Stoichiometry    C6H6S
 Framework group  C1[X(C6H6S)]
 Deg. of freedom    33
 Full point group                 C1      NOp   1
 Largest Abelian subgroup         C1      NOp   1
 Largest concise Abelian subgroup C1      NOp   1
                         Standard orientation:                         
 ---------------------------------------------------------------------
 Center     Atomic      Atomic             Coordinates (Angstroms)
 Number     Number       Type             X           Y           Z
 ---------------------------------------------------------------------
      1          6           0       -0.167802   -1.182093    0.052146
      2          6           0       -1.552435   -1.203160    0.033222
      3          6           0        0.572475    0.014155    0.007635
      4          6           0       -2.271443   -0.012371    0.008067
      5          6           0       -0.188902    1.202529   -0.015460
      6          6           0       -1.571981    1.201973    0.009275
      7          1           0        0.360488    2.163090   -0.038589
      8         16           0        2.210862   -0.048462   -0.075665
      9          1           0        2.534925    0.683696    0.906497
     10          1           0       -2.100728   -2.182806   -0.100292
     11          1           0       -3.349132   -0.030816   -0.197513
     12          1           0       -2.129179    2.146431   -0.003262
     13          1           0        0.390370   -2.130390    0.074487
 ---------------------------------------------------------------------
 Rotational constants (GHZ):      5.6669001      1.6328387      1.2744965
 Standard basis: VSTO-6G (5D, 7F)
 There are    34 symmetry adapted basis functions of A   symmetry.
 Integral buffers will be    131072 words long.
 Regular integral format.
 Two-electron integral symmetry is turned off.
    34 basis functions,   204 primitive gaussians,    34 cartesian basis functions
    18 alpha electrons       18 beta electrons
       nuclear repulsion energy       154.9868948403 Hartrees.



 Warning!  S  atom    8 may be hypervalent but has no d functions.



 Do NDO integrals.
 One-electron integrals computed using PRISM.
 NBasis=    34 RedAO= F  NBF=    34
 NBsUse=    34 1.00D-04 NBFU=    34
 Initial guess read from the read-write file.
 B after Tr=     0.000000    0.000000    0.000000
         Rot=    1.000000    0.000000    0.000000    0.000000 Ang=   0.00 deg.
 Initial guess orbital symmetries:
       Occupied  (A) (A) (A) (A) (A) (A) (A) (A) (A) (A) (A) (A)
                 (A) (A) (A) (A) (A) (A)
       Virtual   (A) (A) (A) (A) (A) (A) (A) (A) (A) (A) (A) (A)
                 (A) (A) (A) (A)
 Requested convergence on RMS density matrix=1.00D-08 within 128 cycles.
 Requested convergence on MAX density matrix=1.00D-06.
 Requested convergence on             energy=1.00D-06.
 No special actions if energy rises.
 Overlap will be assumed to be unity.
 Keep J ints in memory in canonical form, NReq=883879.
 SCF Done:  E(RAM1) =  0.504329018166E-01 A.U. after   14 cycles
             Convg  =    0.4250D-08             -V/T =  1.0008
 Calling FoFJK, ICntrl=      2127 FMM=F ISym2X=0 I1Cent= 0 IOpClX= 0 NMat=1 NMatS=1 NMatT=0.
 ***** Axes restored to original set *****
 -------------------------------------------------------------------
 Center     Atomic                   Forces (Hartrees/Bohr)
 Number     Number              X              Y              Z
 -------------------------------------------------------------------
      1        6          -0.010085926   -0.008684763    0.010975874
      2        6           0.015390370   -0.011776513   -0.014281426
      3        6           0.023735594    0.021643505   -0.039951137
      4        6           0.008219645   -0.002869681    0.010573508
      5        6          -0.014262830   -0.001263789    0.015625130
      6        6           0.003068168   -0.003064972   -0.009675599
      7        1           0.001747977   -0.000625530   -0.002362028
      8       16          -0.002528342   -0.025626589    0.019249091
      9        1          -0.011099439    0.014120864    0.003725869
     10        1          -0.009328691    0.012848036    0.011602523
     11        1          -0.004849454    0.005240429   -0.005355876
     12        1           0.000764147    0.002155549    0.000908648
     13        1          -0.000771220   -0.002096544   -0.001034578
 -------------------------------------------------------------------
 Cartesian Forces:  Max     0.039951137 RMS     0.012518578

 GradGradGradGradGradGradGradGradGradGradGradGradGradGradGradGradGradGrad
 Berny optimization.
 Using GEDIIS/GDIIS optimizer.
 Internal  Forces:  Max     0.029054075 RMS     0.006078003
 Search for a local minimum.
 Step number   4 out of a maximum of   68
 All quantities printed in internal units (Hartrees-Bohrs-Radians)
 Mixed Optimization -- RFO/linear search
 Update second derivatives using D2CorX and points    3    4
 DE= -2.63D-02 DEPred=-2.46D-02 R= 1.07D+00
 SS=  1.41D+00  RLast= 5.04D-01 DXNew= 8.4853D-01 1.5109D+00
 Trust test= 1.07D+00 RLast= 5.04D-01 DXMaxT set to 8.49D-01
 Use linear search instead of GDIIS.
     Eigenvalues ---    0.02077   0.02087   0.02089   0.02091   0.02093
     Eigenvalues ---    0.02095   0.02150   0.02474   0.02813   0.05623
     Eigenvalues ---    0.14918   0.15686   0.15888   0.15994   0.16027
     Eigenvalues ---    0.16550   0.21950   0.22022   0.23231   0.24937
     Eigenvalues ---    0.26824   0.28816   0.32975   0.35112   0.36227
     Eigenvalues ---    0.41193   0.43113   0.44098   0.45621   0.45644
     Eigenvalues ---    0.45899   0.58912   1.092021000.000001000.00000
     Eigenvalues --- 1000.000001000.000001000.000001000.000001000.00000
     Eigenvalues --- 1000.000001000.000001000.000001000.000001000.00000
     Eigenvalues --- 1000.000001000.000001000.000001000.000001000.00000
     Eigenvalues --- 1000.000001000.000001000.000001000.000001000.00000
     Eigenvalues --- 1000.000001000.000001000.00000
 RFO step:  Lambda=-6.08301604D-03 EMin= 2.07739096D-02
 Quartic linear search produced a step of  0.38675.
 Iteration  1 RMS(Cart)=  0.04113083 RMS(Int)=  0.00354659
 Iteration  2 RMS(Cart)=  0.00271692 RMS(Int)=  0.00201502
 Iteration  3 RMS(Cart)=  0.00000395 RMS(Int)=  0.00201502
 Iteration  4 RMS(Cart)=  0.00000001 RMS(Int)=  0.00201502
 Variable       Old X    -DE/DX   Delta X   Delta X   Delta X     New X
                                 (Linear)    (Quad)   (Total)
    R1        2.61712   0.00691   0.00101   0.01867   0.02023   2.63735
    R2        2.65975  -0.00379  -0.04485   0.02709  -0.01845   2.64131
    R3        2.07983   0.00227  -0.00072   0.00933   0.00861   2.08844
    R4        2.62909   0.00361  -0.00392   0.01315   0.01048   2.63956
    R5        2.13644  -0.01880  -0.00801  -0.03641  -0.04442   2.09202
    R6        2.66743  -0.00625  -0.03969   0.01554  -0.02540   2.64203
    R7        3.10236   0.02905   0.03332   0.03734   0.07066   3.17302
    R8        2.64823  -0.00269  -0.00424  -0.00486  -0.00841   2.63983
    R9        2.07355   0.00162   0.01590  -0.01166   0.00424   2.07780
   R10        2.61406   0.00589   0.01382   0.00448   0.01775   2.63181
   R11        2.09158  -0.00248  -0.00335  -0.00355  -0.00690   2.08468
   R12        2.07236   0.00231   0.01994  -0.01136   0.00858   2.08093
   R13        2.39460   0.01823   0.03681   0.03245   0.06927   2.46387
    A1        2.13927  -0.00707  -0.00607  -0.03292  -0.03756   2.10171
    A2        2.08773   0.00253   0.00093   0.00583   0.00572   2.09345
    A3        2.05580   0.00457   0.00565   0.02762   0.03223   2.08802
    A4        2.09893   0.00002   0.00879  -0.00404   0.00433   2.10327
    A5        2.09401  -0.00071  -0.00298   0.00053  -0.00834   2.08567
    A6        2.08161   0.00120   0.00702   0.01142   0.01257   2.09418
    A7        2.01791   0.01050   0.01563   0.03939   0.05482   2.07273
    A8        2.08758  -0.00391  -0.01155  -0.01197  -0.02346   2.06412
    A9        2.17680  -0.00660  -0.00426  -0.02753  -0.03172   2.14508
   A10        2.07568   0.00114  -0.01458   0.02223   0.00508   2.08076
   A11        2.09045   0.00079   0.01257   0.00554   0.00982   2.10027
   A12        2.10011  -0.00101   0.02059  -0.01050   0.00181   2.10192
   A13        2.13966  -0.00502  -0.00130  -0.02711  -0.02846   2.11120
   A14        2.05246   0.00408  -0.00783   0.03361   0.02572   2.07817
   A15        2.09095   0.00094   0.00911  -0.00619   0.00286   2.09381
   A16        2.09367   0.00044  -0.00277   0.00355   0.00234   2.09602
   A17        2.08595   0.00061   0.02058  -0.00209   0.01706   2.10301
   A18        2.10303  -0.00102  -0.01690  -0.00062  -0.01893   2.08410
   A19        1.76589  -0.00133  -0.04681   0.02605  -0.02076   1.74513
    D1       -0.03331   0.00006  -0.00650   0.01593   0.00953  -0.02378
    D2        2.96649   0.00431   0.05931   0.08142   0.13955   3.10604
    D3        3.13897  -0.00098  -0.01975  -0.00528  -0.02440   3.11457
    D4       -0.14440   0.00327   0.04606   0.06020   0.10562  -0.03879
    D5        0.03346   0.00011   0.00716  -0.00895  -0.00195   0.03151
    D6       -3.06473   0.00051   0.01248  -0.00559   0.00700  -3.05773
    D7       -3.13829   0.00110   0.02003   0.01156   0.03143  -3.10686
    D8        0.04670   0.00150   0.02534   0.01491   0.04039   0.08709
    D9       -0.00571   0.00002  -0.00020  -0.00176  -0.00178  -0.00749
   D10        2.93985   0.00515   0.07472   0.09582   0.17102   3.11087
   D11       -3.00652  -0.00404  -0.06374  -0.06590  -0.13074  -3.13726
   D12       -0.06096   0.00109   0.01117   0.03168   0.04207  -0.01889
   D13        0.00446  -0.00029  -0.00149  -0.01169  -0.01289  -0.00843
   D14        3.12939   0.00000  -0.00299   0.00951   0.00691   3.13630
   D15        3.10014  -0.00061  -0.00723  -0.01467  -0.02191   3.07823
   D16       -0.05812  -0.00032  -0.00873   0.00653  -0.00211  -0.06022
   D17       -2.20486  -0.00226  -0.01625  -0.03524  -0.05133  -2.25620
   D18        0.98435  -0.00228  -0.01075  -0.03337  -0.04428   0.94007
   D19        0.04227   0.00001   0.00555  -0.01685  -0.01181   0.03047
   D20       -3.13408   0.00125   0.02265   0.01042   0.03375  -3.10034
   D21       -2.90217  -0.00536  -0.06801  -0.11686  -0.18570  -3.08787
   D22        0.20466  -0.00412  -0.05092  -0.08959  -0.14015   0.06451
   D23       -0.04216   0.00014  -0.00498   0.02479   0.01950  -0.02266
   D24        3.13453  -0.00115  -0.02401  -0.00272  -0.02628   3.10826
   D25        3.11645  -0.00019  -0.00333   0.00279  -0.00068   3.11576
   D26        0.00996  -0.00147  -0.02236  -0.02472  -0.04646  -0.03650
         Item               Value     Threshold  Converged?
 Maximum Force            0.029054     0.000450     NO 
 RMS     Force            0.006078     0.000300     NO 
 Maximum Displacement     0.115072     0.001800     NO 
 RMS     Displacement     0.040950     0.001200     NO 
 Predicted change in Energy=-6.143637D-03
 GradGradGradGradGradGradGradGradGradGradGradGradGradGradGradGradGradGrad

                          Input orientation:                          
 ---------------------------------------------------------------------
 Center     Atomic      Atomic             Coordinates (Angstroms)
 Number     Number       Type             X           Y           Z
 ---------------------------------------------------------------------
      1          6           0       -1.844051    0.080496    0.812427
      2          6           0       -1.049076    0.531486   -0.242277
      3          6           0       -2.026885    0.872291    1.949639
      4          6           0       -0.448219    1.791317   -0.188999
      5          6           0       -1.430709    2.136195    1.992231
      6          6           0       -0.659259    2.600703    0.929832
      7          1           0       -1.575837    2.767488    2.885195
      8         16           0       -2.891878    0.227954    3.236482
      9          1           0       -3.746364    1.191550    3.439680
     10          1           0       -0.887090   -0.122087   -1.121006
     11          1           0        0.200840    2.132134   -1.008461
     12          1           0       -0.227685    3.612701    0.976823
     13          1           0       -2.335787   -0.907226    0.749433
 ---------------------------------------------------------------------
                    Distance matrix (angstroms):
                    1          2          3          4          5
     1  C    0.000000
     2  C    1.395628   0.000000
     3  C    1.397719   2.424202   0.000000
     4  C    2.424481   1.396796   2.812574   0.000000
     5  C    2.405969   2.777365   1.398104   2.417022   0.000000
     6  C    2.787286   2.409866   2.428542   1.396935   1.392693
     7  H    3.404149   3.880497   2.161130   3.416885   1.103167
     8  S    2.644944   3.948394   1.679092   4.488819   2.706393
     9  H    3.428657   4.611708   2.297554   4.940121   2.889589
    10  H    2.166790   1.107051   3.422978   2.173098   3.884276
    11  H    3.421466   2.170576   3.911562   1.099523   3.415570
    12  H    3.887948   3.413908   3.419553   2.173757   2.158330
    13  H    1.105155   2.170024   2.168547   3.424281   3.409711
                    6          7          8          9         10
     6  C    0.000000
     7  H    2.165959   0.000000
     8  S    3.991887   2.881770   0.000000
     9  H    4.220814   2.739019   1.303822   0.000000
    10  H    3.416347   4.987350   4.809304   5.540843   0.000000
    11  H    2.171706   4.326755   5.586622   6.020886   2.505548
    12  H    1.101183   2.484710   4.864206   4.930389   4.334091
    13  H    3.892153   4.317699   2.789855   3.692156   2.492730
                   11         12         13
    11  H    0.000000
    12  H    2.513377   0.000000
    13  H    4.331555   4.992548   0.000000
 Stoichiometry    C6H6S
 Framework group  C1[X(C6H6S)]
 Deg. of freedom    33
 Full point group                 C1      NOp   1
 Largest Abelian subgroup         C1      NOp   1
 Largest concise Abelian subgroup C1      NOp   1
                         Standard orientation:                         
 ---------------------------------------------------------------------
 Center     Atomic      Atomic             Coordinates (Angstroms)
 Number     Number       Type             X           Y           Z
 ---------------------------------------------------------------------
      1          6           0       -0.161297   -1.199321    0.042885
      2          6           0       -1.556628   -1.205565    0.014776
      3          6           0        0.541738    0.008359    0.013409
      4          6           0       -2.270663   -0.005426   -0.014559
      5          6           0       -0.179213    1.206085   -0.005976
      6          6           0       -1.571905    1.204160   -0.006341
      7          1           0        0.370491    2.162365   -0.024160
      8         16           0        2.217545   -0.049073   -0.074469
      9          1           0        2.523122    0.749532    0.909810
     10          1           0       -2.097359   -2.171519    0.004514
     11          1           0       -3.368959   -0.013775   -0.065796
     12          1           0       -2.113982    2.162536    0.010134
     13          1           0        0.393778   -2.153713    0.091834
 ---------------------------------------------------------------------
 Rotational constants (GHZ):      5.6114332      1.6301095      1.2696738
 Standard basis: VSTO-6G (5D, 7F)
 There are    34 symmetry adapted basis functions of A   symmetry.
 Integral buffers will be    131072 words long.
 Regular integral format.
 Two-electron integral symmetry is turned off.
    34 basis functions,   204 primitive gaussians,    34 cartesian basis functions
    18 alpha electrons       18 beta electrons
       nuclear repulsion energy       154.7849535954 Hartrees.



 Warning!  S  atom    8 may be hypervalent but has no d functions.



 Do NDO integrals.
 One-electron integrals computed using PRISM.
 NBasis=    34 RedAO= F  NBF=    34
 NBsUse=    34 1.00D-04 NBFU=    34
 Initial guess read from the read-write file.
 B after Tr=     0.000000    0.000000    0.000000
         Rot=    1.000000    0.000000    0.000000    0.000000 Ang=   0.00 deg.
 Initial guess orbital symmetries:
       Occupied  (A) (A) (A) (A) (A) (A) (A) (A) (A) (A) (A) (A)
                 (A) (A) (A) (A) (A) (A)
       Virtual   (A) (A) (A) (A) (A) (A) (A) (A) (A) (A) (A) (A)
                 (A) (A) (A) (A)
 Requested convergence on RMS density matrix=1.00D-08 within 128 cycles.
 Requested convergence on MAX density matrix=1.00D-06.
 Requested convergence on             energy=1.00D-06.
 No special actions if energy rises.
 Overlap will be assumed to be unity.
 Keep J ints in memory in canonical form, NReq=883879.
 SCF Done:  E(RAM1) =  0.439350441033E-01 A.U. after   13 cycles
             Convg  =    0.7431D-08             -V/T =  1.0007
 Calling FoFJK, ICntrl=      2127 FMM=F ISym2X=0 I1Cent= 0 IOpClX= 0 NMat=1 NMatS=1 NMatT=0.
 ***** Axes restored to original set *****
 -------------------------------------------------------------------
 Center     Atomic                   Forces (Hartrees/Bohr)
 Number     Number              X              Y              Z
 -------------------------------------------------------------------
      1        6           0.000895235   -0.002826362   -0.004570462
      2        6           0.002336538   -0.002588871   -0.002501339
      3        6           0.005738839    0.004469314   -0.009776200
      4        6          -0.001584493   -0.002821119    0.003549742
      5        6          -0.000731060    0.003475610    0.002764637
      6        6          -0.000579144    0.000738725   -0.001202832
      7        1           0.000602092    0.000033676   -0.001307966
      8       16          -0.003881905   -0.009679738    0.007915023
      9        1          -0.002945871    0.004956284    0.002112137
     10        1          -0.001118384    0.003146923    0.003306852
     11        1          -0.001344066    0.000583170   -0.000399875
     12        1           0.001031224   -0.001388602   -0.000287161
     13        1           0.001580995    0.001900989    0.000397443
 -------------------------------------------------------------------
 Cartesian Forces:  Max     0.009776200 RMS     0.003534335

 GradGradGradGradGradGradGradGradGradGradGradGradGradGradGradGradGradGrad
 Berny optimization.
 Using GEDIIS/GDIIS optimizer.
 Internal  Forces:  Max     0.013014690 RMS     0.002284726
 Search for a local minimum.
 Step number   5 out of a maximum of   68
 All quantities printed in internal units (Hartrees-Bohrs-Radians)
 Mixed Optimization -- RFO/linear search
 Update second derivatives using D2CorX and points    4    5
 DE= -6.50D-03 DEPred=-6.14D-03 R= 1.06D+00
 SS=  1.41D+00  RLast= 4.12D-01 DXNew= 1.4270D+00 1.2365D+00
 Trust test= 1.06D+00 RLast= 4.12D-01 DXMaxT set to 1.24D+00
 Use linear search instead of GDIIS.
     Eigenvalues ---    0.02026   0.02086   0.02089   0.02091   0.02092
     Eigenvalues ---    0.02094   0.02105   0.02765   0.02822   0.05417
     Eigenvalues ---    0.14669   0.15994   0.16000   0.16013   0.16031
     Eigenvalues ---    0.16556   0.21573   0.22149   0.22223   0.24926
     Eigenvalues ---    0.26826   0.28825   0.31911   0.33214   0.36020
     Eigenvalues ---    0.41710   0.42618   0.43421   0.45632   0.45660
     Eigenvalues ---    0.46550   0.58368   1.081671000.000001000.00000
     Eigenvalues --- 1000.000001000.000001000.000001000.000001000.00000
     Eigenvalues --- 1000.000001000.000001000.000001000.000001000.00000
     Eigenvalues --- 1000.000001000.000001000.000001000.000001000.00000
     Eigenvalues --- 1000.000001000.000001000.000001000.000001000.00000
     Eigenvalues --- 1000.000001000.000001000.00000
 RFO step:  Lambda=-8.06251065D-04 EMin= 2.02605758D-02
 Quartic linear search produced a step of  0.25087.
 Iteration  1 RMS(Cart)=  0.01884987 RMS(Int)=  0.00052862
 Iteration  2 RMS(Cart)=  0.00037500 RMS(Int)=  0.00037925
 Iteration  3 RMS(Cart)=  0.00000018 RMS(Int)=  0.00037925
 Variable       Old X    -DE/DX   Delta X   Delta X   Delta X     New X
                                 (Linear)    (Quad)   (Total)
    R1        2.63735  -0.00278   0.00508  -0.01062  -0.00545   2.63191
    R2        2.64131   0.00316  -0.00463   0.00484   0.00009   2.64139
    R3        2.08844  -0.00243   0.00216  -0.01054  -0.00838   2.08006
    R4        2.63956  -0.00280   0.00263  -0.01046  -0.00760   2.63196
    R5        2.09202  -0.00465  -0.01114  -0.00430  -0.01544   2.07658
    R6        2.64203   0.00235  -0.00637   0.00472  -0.00188   2.64016
    R7        3.17302   0.01301   0.01773   0.01910   0.03683   3.20985
    R8        2.63983  -0.00139  -0.00211  -0.00379  -0.00577   2.63405
    R9        2.07780  -0.00031   0.00106  -0.00022   0.00085   2.07864
   R10        2.63181  -0.00056   0.00445  -0.00169   0.00267   2.63448
   R11        2.08468  -0.00112  -0.00173  -0.00273  -0.00446   2.08023
   R12        2.08093  -0.00088   0.00215  -0.00258  -0.00043   2.08050
   R13        2.46387   0.00592   0.01738   0.01582   0.03319   2.49706
    A1        2.10171  -0.00024  -0.00942   0.00433  -0.00484   2.09687
    A2        2.09345   0.00011   0.00143  -0.00143  -0.00020   2.09325
    A3        2.08802   0.00012   0.00808  -0.00285   0.00503   2.09306
    A4        2.10327  -0.00078   0.00109  -0.00536  -0.00438   2.09889
[...]
   R13        2.49737   0.00002   0.00003   0.00010   0.00013   2.49750
    A1        2.09791   0.00000   0.00000   0.00002   0.00002   2.09793
    A2        2.09766  -0.00001   0.00000  -0.00007  -0.00007   2.09759
    A3        2.08762   0.00001   0.00000   0.00005   0.00005   2.08766
    A4        2.09831   0.00000   0.00004  -0.00003   0.00001   2.09832
    A5        2.09036  -0.00001  -0.00003  -0.00003  -0.00006   2.09030
    A6        2.09452   0.00001  -0.00001   0.00006   0.00005   2.09456
    A7        2.08343   0.00000  -0.00003   0.00001  -0.00002   2.08341
    A8        2.03638   0.00005   0.00020   0.00010   0.00030   2.03669
    A9        2.16338  -0.00005  -0.00017  -0.00011  -0.00029   2.16309
   A10        2.08999   0.00000  -0.00003   0.00001  -0.00002   2.08997
   A11        2.09597   0.00001   0.00006   0.00002   0.00007   2.09604
   A12        2.09723   0.00000  -0.00003  -0.00002  -0.00005   2.09718
   A13        2.09888   0.00000   0.00003  -0.00002   0.00001   2.09889
   A14        2.09746  -0.00001  -0.00009   0.00000  -0.00008   2.09738
   A15        2.08684   0.00001   0.00006   0.00002   0.00008   2.08692
   A16        2.09785   0.00000  -0.00001   0.00001   0.00001   2.09786
   A17        2.09615   0.00000  -0.00007  -0.00001  -0.00008   2.09606
   A18        2.08919   0.00000   0.00008   0.00000   0.00008   2.08926
   A19        1.74600   0.00000  -0.00004   0.00002  -0.00002   1.74599
    D1       -0.00001   0.00000  -0.00002   0.00002   0.00000   0.00000
    D2        3.14156   0.00000   0.00001   0.00000   0.00001   3.14156
    D3        3.14157   0.00000   0.00000   0.00003   0.00003  -3.14159
    D4       -0.00006   0.00000   0.00003   0.00000   0.00003  -0.00003
    D5        0.00004   0.00000   0.00001  -0.00005  -0.00004   0.00001
    D6       -3.14144   0.00000  -0.00013  -0.00003  -0.00016   3.14158
    D7       -3.14153   0.00000   0.00000  -0.00006  -0.00006  -3.14159
    D8        0.00017   0.00000  -0.00015  -0.00003  -0.00018  -0.00001
    D9        0.00002   0.00000  -0.00002  -0.00003  -0.00005  -0.00002
   D10       -3.14157   0.00000  -0.00016   0.00008  -0.00008   3.14154
   D11       -3.14154   0.00000  -0.00005   0.00000  -0.00005  -3.14159
   D12        0.00005   0.00000  -0.00018   0.00010  -0.00008  -0.00003
   D13       -0.00010   0.00000   0.00003   0.00008   0.00011   0.00001
   D14        3.14144   0.00000   0.00016  -0.00002   0.00014   3.14158
   D15        3.14138   0.00000   0.00018   0.00006   0.00024  -3.14157
   D16       -0.00027   0.00000   0.00032  -0.00005   0.00027   0.00000
   D17       -3.14103   0.00000  -0.00054   0.00003  -0.00051  -3.14153
   D18        0.00067   0.00000  -0.00070   0.00006  -0.00063   0.00004
   D19       -0.00008   0.00000   0.00006   0.00006   0.00012   0.00004
   D20        3.14146   0.00000   0.00019  -0.00003   0.00016  -3.14156
   D21        3.14151   0.00000   0.00020  -0.00005   0.00016  -3.14152
   D22       -0.00013   0.00000   0.00032  -0.00013   0.00019   0.00006
   D23        0.00012   0.00000  -0.00007  -0.00009  -0.00016  -0.00004
   D24       -3.14142   0.00000  -0.00019   0.00000  -0.00019   3.14157
   D25       -3.14142   0.00000  -0.00020   0.00001  -0.00019   3.14158
   D26        0.00022   0.00000  -0.00032   0.00010  -0.00022   0.00000
         Item               Value     Threshold  Converged?
 Maximum Force            0.000046     0.000450     YES
 RMS     Force            0.000013     0.000300     YES
 Maximum Displacement     0.000929     0.001800     YES
 RMS     Displacement     0.000220     0.001200     YES
 Predicted change in Energy=-2.117854D-08
 Optimization completed.
    -- Stationary point found.
                           ----------------------------
                           !   Optimized Parameters   !
                           ! (Angstroms and Degrees)  !
 --------------------------                            --------------------------
 ! Name  Definition              Value          Derivative Info.                !
 --------------------------------------------------------------------------------
 ! R1    R(1,2)                  1.3917         -DE/DX =    0.0                 !
 ! R2    R(1,3)                  1.402          -DE/DX =    0.0                 !
 ! R3    R(1,13)                 1.101          -DE/DX =    0.0                 !
 ! R4    R(2,4)                  1.3961         -DE/DX =    0.0                 !
 ! R5    R(2,10)                 1.1001         -DE/DX =    0.0                 !
 ! R6    R(3,5)                  1.3982         -DE/DX =    0.0                 !
 ! R7    R(3,8)                  1.6963         -DE/DX =    0.0                 !
 ! R8    R(4,6)                  1.3939         -DE/DX =    0.0                 !
 ! R9    R(4,11)                 1.0994         -DE/DX =    0.0                 !
 ! R10   R(5,6)                  1.394          -DE/DX =    0.0                 !
 ! R11   R(5,7)                  1.1002         -DE/DX =    0.0                 !
 ! R12   R(6,12)                 1.1            -DE/DX =    0.0                 !
 ! R13   R(8,9)                  1.3216         -DE/DX =    0.0                 !
 ! A1    A(2,1,3)              120.2015         -DE/DX =    0.0                 !
 ! A2    A(2,1,13)             120.1869         -DE/DX =    0.0                 !
 ! A3    A(3,1,13)             119.6115         -DE/DX =    0.0                 !
 ! A4    A(1,2,4)              120.2244         -DE/DX =    0.0                 !
 ! A5    A(1,2,10)             119.7687         -DE/DX =    0.0                 !
 ! A6    A(4,2,10)             120.0069         -DE/DX =    0.0                 !
 ! A7    A(1,3,5)              119.3715         -DE/DX =    0.0                 !
 ! A8    A(1,3,8)              116.6762         -DE/DX =    0.0                 !
 ! A9    A(5,3,8)              123.9523         -DE/DX =    0.0                 !
 ! A10   A(2,4,6)              119.7474         -DE/DX =    0.0                 !
 ! A11   A(2,4,11)             120.0901         -DE/DX =    0.0                 !
 ! A12   A(6,4,11)             120.1625         -DE/DX =    0.0                 !
 ! A13   A(3,5,6)              120.2571         -DE/DX =    0.0                 !
 ! A14   A(3,5,7)              120.1758         -DE/DX =    0.0                 !
 ! A15   A(6,5,7)              119.567          -DE/DX =    0.0                 !
 ! A16   A(4,6,5)              120.198          -DE/DX =    0.0                 !
 ! A17   A(4,6,12)             120.1004         -DE/DX =    0.0                 !
 ! A18   A(5,6,12)             119.7015         -DE/DX =    0.0                 !
 ! A19   A(3,8,9)              100.0386         -DE/DX =    0.0                 !
 ! D1    D(3,1,2,4)             -0.0003         -DE/DX =    0.0                 !
 ! D2    D(3,1,2,10)           179.9979         -DE/DX =    0.0                 !
 ! D3    D(13,1,2,4)          -180.0014         -DE/DX =    0.0                 !
 ! D4    D(13,1,2,10)           -0.0032         -DE/DX =    0.0                 !
 ! D5    D(2,1,3,5)              0.0025         -DE/DX =    0.0                 !
 ! D6    D(2,1,3,8)            180.0086         -DE/DX =    0.0                 !
 ! D7    D(13,1,3,5)          -179.9964         -DE/DX =    0.0                 !
 ! D8    D(13,1,3,8)             0.0097         -DE/DX =    0.0                 !
 ! D9    D(1,2,4,6)              0.0014         -DE/DX =    0.0                 !
 ! D10   D(1,2,4,11)           180.0013         -DE/DX =    0.0                 !
 ! D11   D(10,2,4,6)          -179.9969         -DE/DX =    0.0                 !
 ! D12   D(10,2,4,11)            0.0031         -DE/DX =    0.0                 !
 ! D13   D(1,3,5,6)             -0.0058         -DE/DX =    0.0                 !
 ! D14   D(1,3,5,7)            179.9912         -DE/DX =    0.0                 !
 ! D15   D(8,3,5,6)           -180.0123         -DE/DX =    0.0                 !
 ! D16   D(8,3,5,7)             -0.0153         -DE/DX =    0.0                 !
 ! D17   D(1,3,8,9)           -179.9677         -DE/DX =    0.0                 !
 ! D18   D(5,3,8,9)              0.0387         -DE/DX =    0.0                 !
 ! D19   D(2,4,6,5)             -0.0047         -DE/DX =    0.0                 !
 ! D20   D(2,4,6,12)          -180.0074         -DE/DX =    0.0                 !
 ! D21   D(11,4,6,5)          -180.0047         -DE/DX =    0.0                 !
 ! D22   D(11,4,6,12)           -0.0074         -DE/DX =    0.0                 !
 ! D23   D(3,5,6,4)              0.0069         -DE/DX =    0.0                 !
 ! D24   D(3,5,6,12)           180.0097         -DE/DX =    0.0                 !
 ! D25   D(7,5,6,4)            180.0099         -DE/DX =    0.0                 !
 ! D26   D(7,5,6,12)             0.0127         -DE/DX =    0.0                 !
 --------------------------------------------------------------------------------
 GradGradGradGradGradGradGradGradGradGradGradGradGradGradGradGradGradGrad

                          Input orientation:                          
 ---------------------------------------------------------------------
 Center     Atomic      Atomic             Coordinates (Angstroms)
 Number     Number       Type             X           Y           Z
 ---------------------------------------------------------------------
      1          6           0       -1.851879    0.060502    0.758133
      2          6           0       -0.996576    0.507081   -0.244732
      3          6           0       -2.137848    0.881074    1.858302
      4          6           0       -0.417844    1.774859   -0.161836
      5          6           0       -1.555968    2.149979    1.937004
      6          6           0       -0.699659    2.593721    0.930451
      7          1           0       -1.771337    2.804947    2.794428
      8         16           0       -3.190932    0.247555    3.027545
      9          1           0       -3.225680    1.258384    3.878141
     10          1           0       -0.777073   -0.142752   -1.104884
     11          1           0        0.257529    2.125446   -0.955385
     12          1           0       -0.246750    3.593653    1.001714
     13          1           0       -2.307984   -0.939450    0.692120
 ---------------------------------------------------------------------
                    Distance matrix (angstroms):
                    1          2          3          4          5
     1  C    0.000000
     2  C    1.391658   0.000000
     3  C    1.401958   2.421801   0.000000
     4  C    2.416985   1.396089   2.799683   0.000000
     5  C    2.417274   2.787832   1.398177   2.416852   0.000000
     6  C    2.788280   2.413148   2.421251   1.393932   1.394031
     7  H    3.418327   3.888050   2.170703   3.410649   1.100246
     8  S    2.641644   3.948461   1.696308   4.493866   2.735252
     9  H    3.613405   4.746729   2.324971   4.946928   2.711252
    10  H    2.160406   1.100148   3.417659   2.166937   3.887979
    11  H    3.413171   2.167236   3.899119   1.099436   3.413984
    12  H    3.888306   3.412154   3.415857   2.165903   2.161715
    13  H    1.101042   2.165625   2.168694   3.416042   3.414651
                    6          7          8          9         10
     6  C    0.000000
     7  H    2.160445   0.000000
     8  S    4.013570   2.934254   0.000000
     9  H    4.105214   2.383569   1.321551   0.000000
    10  H    3.411285   4.988198   4.801669   5.726202   0.000000
    11  H    2.166072   4.317304   5.593039   6.020590   2.497493
    12  H    1.100031   2.481984   4.895770   4.754085   4.322004
    13  H    3.889320   4.327609   2.764560   3.977860   2.491513
                   11         12         13
    11  H    0.000000
    12  H    2.498033   0.000000
    13  H    4.323160   4.989344   0.000000
 Stoichiometry    C6H6S
 Framework group  C1[X(C6H6S)]
 Deg. of freedom    33
 Full point group                 C1      NOp   1
 Largest Abelian subgroup         C1      NOp   1
 Largest concise Abelian subgroup C1      NOp   1
                         Standard orientation:                         
 ---------------------------------------------------------------------
 Center     Atomic      Atomic             Coordinates (Angstroms)
 Number     Number       Type             X           Y           Z
 ---------------------------------------------------------------------
      1          6           0       -0.166227   -1.201591    0.000072
      2          6           0       -1.557866   -1.209014    0.000020
      3          6           0        0.532545    0.013812    0.000066
      4          6           0       -2.267064   -0.006474   -0.000031
      5          6           0       -0.181967    1.215632    0.000062
      6          6           0       -1.575950    1.204066   -0.000059
      7          1           0        0.352981    2.177075    0.000204
      8         16           0        2.226176   -0.081462   -0.000094
      9          1           0        2.529264    1.204864    0.000675
     10          1           0       -2.098988   -2.166883   -0.000010
     11          1           0       -3.366467   -0.014915   -0.000050
     12          1           0       -2.128905    2.155017   -0.000223
     13          1           0        0.392471   -2.150354    0.000136
 ---------------------------------------------------------------------
 Rotational constants (GHZ):      5.5859544      1.6291140      1.2612710

 **********************************************************************

            Population analysis using the SCF density.

 **********************************************************************

 Orbital symmetries:
       Occupied  (A) (A) (A) (A) (A) (A) (A) (A) (A) (A) (A) (A)
                 (A) (A) (A) (A) (A) (A)
       Virtual   (A) (A) (A) (A) (A) (A) (A) (A) (A) (A) (A) (A)
                 (A) (A) (A) (A)
 The electronic state is 1-A.
 Alpha  occ. eigenvalues --   -1.44815  -1.17348  -1.16262  -0.87681  -0.86544
 Alpha  occ. eigenvalues --   -0.71219  -0.64353  -0.60630  -0.57656  -0.53412
 Alpha  occ. eigenvalues --   -0.52543  -0.51395  -0.46551  -0.44595  -0.42642
 Alpha  occ. eigenvalues --   -0.40518  -0.36236  -0.30995
 Alpha virt. eigenvalues --    0.00771   0.01452   0.02555   0.05781   0.09961
 Alpha virt. eigenvalues --    0.13870   0.14096   0.14727   0.15741   0.16157
 Alpha virt. eigenvalues --    0.17345   0.18153   0.19033   0.19687   0.20351
 Alpha virt. eigenvalues --    0.21617
          Condensed to atoms (all electrons):
              1          2          3          4          5          6
     1  C    4.118525   0.000000   0.000000   0.000000   0.000000   0.000000
     2  C    0.000000   4.113775   0.000000   0.000000   0.000000   0.000000
     3  C    0.000000   0.000000   4.210566   0.000000   0.000000   0.000000
     4  C    0.000000   0.000000   0.000000   4.137108   0.000000   0.000000
     5  C    0.000000   0.000000   0.000000   0.000000   4.145309   0.000000
     6  C    0.000000   0.000000   0.000000   0.000000   0.000000   4.112197
     7  H    0.000000   0.000000   0.000000   0.000000   0.000000   0.000000
     8  S    0.000000   0.000000   0.000000   0.000000   0.000000   0.000000
     9  H    0.000000   0.000000   0.000000   0.000000   0.000000   0.000000
    10  H    0.000000   0.000000   0.000000   0.000000   0.000000   0.000000
    11  H    0.000000   0.000000   0.000000   0.000000   0.000000   0.000000
    12  H    0.000000   0.000000   0.000000   0.000000   0.000000   0.000000
    13  H    0.000000   0.000000   0.000000   0.000000   0.000000   0.000000
              7          8          9         10         11         12
     1  C    0.000000   0.000000   0.000000   0.000000   0.000000   0.000000
     2  C    0.000000   0.000000   0.000000   0.000000   0.000000   0.000000
     3  C    0.000000   0.000000   0.000000   0.000000   0.000000   0.000000
     4  C    0.000000   0.000000   0.000000   0.000000   0.000000   0.000000
     5  C    0.000000   0.000000   0.000000   0.000000   0.000000   0.000000
     6  C    0.000000   0.000000   0.000000   0.000000   0.000000   0.000000
     7  H    0.870463   0.000000   0.000000   0.000000   0.000000   0.000000
     8  S    0.000000   5.855633   0.000000   0.000000   0.000000   0.000000
     9  H    0.000000   0.000000   0.980834   0.000000   0.000000   0.000000
    10  H    0.000000   0.000000   0.000000   0.865504   0.000000   0.000000
    11  H    0.000000   0.000000   0.000000   0.000000   0.866477   0.000000
    12  H    0.000000   0.000000   0.000000   0.000000   0.000000   0.866833
    13  H    0.000000   0.000000   0.000000   0.000000   0.000000   0.000000
             13
     1  C    0.000000
     2  C    0.000000
     3  C    0.000000
     4  C    0.000000
     5  C    0.000000
     6  C    0.000000
     7  H    0.000000
     8  S    0.000000
     9  H    0.000000
    10  H    0.000000
    11  H    0.000000
    12  H    0.000000
    13  H    0.856776
 Mulliken atomic charges:
              1
     1  C   -0.118525
     2  C   -0.113775
     3  C   -0.210566
     4  C   -0.137108
     5  C   -0.145309
     6  C   -0.112197
     7  H    0.129537
     8  S    0.144367
     9  H    0.019166
    10  H    0.134496
    11  H    0.133523
    12  H    0.133167
    13  H    0.143224
 Sum of Mulliken atomic charges =   0.00000
 Mulliken charges with hydrogens summed into heavy atoms:
              1
     1  C    0.024699
     2  C    0.020721
     3  C   -0.210566
     4  C   -0.003585
     5  C   -0.015772
     6  C    0.020970
     8  S    0.163533
 Sum of Mulliken charges with hydrogens summed into heavy atoms =   0.00000
 Charge=              0.0000 electrons
 Dipole moment (field-independent basis, Debye):
    X=             -0.7079    Y=              0.9812    Z=              0.0007  Tot=              1.2099
 N-N= 1.547108432734D+02 E-N=-2.236719678490D+02  KE=-6.156011430987D+01
 1\1\GINC-OBELIX77\FOpt\RAM1\ZDO\C6H6S1\CASE\27-Jul-2010\0\\#AM1 Opt\\T
 est of guassian semiempirical code\\0,1\C,-1.8518789221,0.0605024344,0
 .7581331005\C,-0.9965760947,0.507081077,-0.2447316974\C,-2.1378476335,
 0.8810736106,1.8583017776\C,-0.4178436464,1.7748587452,-0.1618362109\C
 ,-1.5559675508,2.1499793364,1.9370044717\C,-0.6996589438,2.5937214432,
 0.930450504\H,-1.7713370757,2.8049468194,2.7944279247\S,-3.1909318459,
 0.2475548735,3.0275449978\H,-3.2256797212,1.2583844758,3.8781405204\H,
 -0.7770729714,-0.1427517509,-1.1048838575\H,0.2575285924,2.1254459285,
 -0.9553854255\H,-0.2467503913,3.5936528892,1.0017142713\H,-2.307983795
 7,-0.9394498821,0.6921196231\\Version=AM64L-G09RevA.02\State=1-A\HF=0.
 0408611\RMSD=3.001e-09\RMSF=2.469e-05\Dipole=0.2168393,0.4236473,-0.01
 00331\PG=C01 [X(C6H6S1)]\\@


 CHILDREN YOU ARE VERY LITTLE,
 AND YOUR BONES ARE VERY BRITTLE;
 IF YOU WOULD GROW GREAT AND STATELY
 YOU MUST TRY TO WALK SEDATELY.
 YOU MUST STILL BE BRIGHT AND QUIET,
 AND CONTENT WITH SIMPLE DIET;
 AND REMAIN, THROUGH ALL BEWILD'RING
 INNOCENT AND HONEST CHILDREN.
     -- A CHILD'S GARDEN OF VERSE,
        ROBERT LOUIS STEVENSON
 Job cpu time:  0 days  0 hours  0 minutes 18.1 seconds.
 File lengths (MBytes):  RWF=      5 Int=      0 D2E=      0 Chk=      2 Scr=      1
 Normal termination of Gaussian 09 at Tue Jul 27 09:44:03 2010.
#AM1  Opt

  Test of guassian semiempirical code

0   1
   6     -1.9590        0.1020        0.7950 
   6     -1.2490        0.6020       -0.3030 
   6     -2.0710        0.8650        1.9630 
   6     -0.6460        1.8630       -0.2340 
   6     -1.4720        2.1290        2.0310 
   6     -0.7590        2.6270        0.9340 
   1     -1.5580        2.7190        2.9310 
  16     -2.7820        0.3650        3.0600 
   1     -3.5410        0.9790        3.2740 
   1     -0.7870       -0.0430       -0.9380 
   1      0.3730        2.0450       -0.7840 
   1     -0.0920        3.5780        0.7810 
   1     -2.3790       -0.9160        0.9010 

